! TOUCHSTONE file generated by CST MICROWAVE STUDIO
! Date and time: Thu Oct 30 13:41:13 2025
! Project name: ResonadorAnillo_PadsGndDesplazados_AnchoPistaPin.cst
! Parameters = {Eeff=3.2262; Er=4.3; H=1.56; L1=41.7557; L2=41.7557; L_Ang=8.68; L_AngTrans=1; L_Base=6.5; L_PadGND=4; L_Pin=4; L_conn=4; L_sma=8.5; Landa=167.023; R_Diel=2.08; R_Pin=0.45; R_sma=2.58; T=0.035; W=2.6; W_Base=1.5; W_PadGND=1.8; W_PistaPin=2.5; W_conn=0.9; Wa=2.6; X=113.294; Y=113.294; c=3e+11; d_Borde=0.27; f=1e+09; r=26.5825; s=0.3}
! Header version: 2024
! Port assignment regex: !\s*Touchstone port\s*([0-9]+)\s*=\s*(CST MWS port|CST DES external port|CST DES block port)\s*(.+)\s* \(\"(.*)\"\)(\s*mode\s*([0-9]+))?.*
! Touchstone port assignment:
! Touchstone port 1 = CST MWS port 1 ("")
! Touchstone port 2 = CST MWS port 2 ("")
# GHz S MA R 62.45
0                     1.00001036               0   7.41990135e-07               0   7.41990148e-07               0       1.00001006               0
0.0008               0.999931003     -0.15385824    6.6539471e-07      93.3448906   6.65394705e-07      93.3448907      0.999930779    -0.153799306
0.0016               0.999858626    -0.307723322   1.34270082e-06      106.828395   1.34270082e-06      106.828395      0.999858218    -0.307610332
0.0024               0.999786368     -0.46159101   1.95807306e-06      112.874384   1.95807306e-06      112.874384      0.999785721    -0.461427712
0.0032               0.999714365    -0.615459974   2.55290745e-06      118.780388   2.55290744e-06      118.780388       0.99971335    -0.615248821
0.004                0.999643254    -0.769325509   3.34720157e-06      130.635714   3.34720157e-06      130.635714      0.999641348    -0.769067122
0.0048                0.99959117    -0.922615351   1.49093744e-05     -162.742961   1.49093744e-05     -162.742961      0.999575686    -0.922582256
0.0056               0.999491723     -1.07705914   4.09814149e-06      64.0331846    4.0981415e-06      64.0331846      0.999493975      -1.0767499
0.0064               0.999421177     -1.23093732    4.1616726e-06      81.8012089    4.1616726e-06      81.8012089      0.999422295     -1.23056989
0.0072               0.999349268     -1.38480433   4.56004925e-06      86.8773587   4.56004925e-06      86.8773587        0.9993501     -1.38438984
0.008                0.999277028     -1.53866796   5.00966981e-06      88.8027087   5.00966981e-06      88.8027087      0.999277779     -1.53820796
0.0088               0.999200083     -1.69278656   5.48339853e-06      89.5815498   5.48339853e-06      89.5815498      0.999200838     -1.69228103
0.0096               0.999122168     -1.84695506   5.97381735e-06      89.8837307   5.97381735e-06      89.8837308       0.99912297      -1.8464037
0.0104               0.999054159     -2.00062541   6.47595278e-06      89.9964807   6.47595278e-06      89.9964807      0.999055025     -2.00002809
0.0112               0.998998387     -2.15400387   6.98819265e-06      90.0414753   6.98819266e-06      90.0414754      0.998999321     -2.15336034
0.012                0.998944862     -2.30761352   7.51036742e-06      90.0584612   7.51036742e-06      90.0584612      0.998945873     -2.30692327
0.0128                0.99889003     -2.46149855   8.04109629e-06      90.0697117   8.04109629e-06      90.0697117      0.998891122     -2.46076107
0.0136               0.998828736     -2.61574809   8.57942233e-06       90.081425   8.57942233e-06      90.0814251      0.998829914     -2.61496286
0.0144               0.998768524     -2.76972946    9.1223126e-06      90.1087886   9.12231261e-06      90.1087886      0.998769787     -2.76889635
0.0152               0.998709304     -2.92363721   9.66962207e-06      90.1520305   9.66962207e-06      90.1520305      0.998710652     -2.92275602
0.016                0.998651057      -3.0775142   1.02208879e-05      90.2097233   1.02208879e-05      90.2097233      0.998652488     -3.07658472
0.0168               0.998597235     -3.23115285   1.07749796e-05      90.2833503   1.07749796e-05      90.2833503      0.998598745     -3.23017504
0.0176               0.998537772     -3.38511242   1.13333515e-05      90.3600205   1.13333515e-05      90.3600206      0.998539362     -3.38408593
0.0184               0.998478999     -3.53902293   1.18945554e-05      90.4444007   1.18945554e-05      90.4444008      0.998480667     -3.53794763
0.0192               0.998420903      -3.6929076   1.24584857e-05      90.5343831   1.24584857e-05      90.5343831      0.998422647     -3.69178337
0.02                 0.998363486     -3.84676611   1.30250149e-05      90.6281272   1.30250149e-05      90.6281272      0.998365303     -3.84559285
0.0208               0.998309284     -4.00044867   1.35935757e-05      90.7262235   1.35935757e-05      90.7262235      0.998311171     -3.99922636
0.0216               0.998251041     -4.15436038   1.41654288e-05      90.8210947   1.41654288e-05      90.8210947      0.998252997     -4.15308878
0.0224               0.998193316     -4.30823824   1.47397019e-05       90.915662   1.47397019e-05       90.915662       0.99819534     -4.30691728
0.0232               0.998136103     -4.46209783   1.53164468e-05      91.0089638   1.53164468e-05      91.0089639      0.998138193     -4.46072743
0.024                0.998079401     -4.61593739   1.58956721e-05      91.1002206   1.58956721e-05      91.1002207      0.998081555     -4.61451747
0.0248               0.998025077     -4.76964575   1.64770431e-05      91.1901543   1.64770431e-05      91.1901544      0.998027292      -4.7681763
0.0256               0.997967669     -4.92352575    1.7061573e-05      91.2742715    1.7061573e-05      91.2742715      0.997969946     -4.92200659
0.0264                0.99791067     -5.07737561   1.76486488e-05      91.3547765   1.76486488e-05      91.3547766      0.997913006     -5.07580669
0.0272               0.997854072     -5.23121015   1.82383666e-05      91.4313216   1.82383666e-05      91.4313216      0.997856466     -5.22959139
0.028                0.997797876     -5.38502799   1.88307702e-05       91.503647   1.88307702e-05       91.503647      0.997800327     -5.38335932
0.0288               0.997743528     -5.53874235   1.94256277e-05      91.5724733   1.94256277e-05      91.5724733      0.997746035     -5.53702374
0.0296               0.997686728     -5.69259072   2.00237562e-05      91.6349247   2.00237562e-05      91.6349247      0.997689289     -5.69082203
0.0304               0.997630258     -5.84641211    2.0624685e-05      91.6927084    2.0624685e-05      91.6927084      0.997632873     -5.84459326
0.0312               0.997574114     -6.00021989   2.12285116e-05      91.7457382   2.12285116e-05      91.7457382      0.997576782     -5.99835082
0.032                0.997518295     -6.15401291    2.1835282e-05      91.7939712    2.1835282e-05      91.7939713      0.997521015     -6.15209354
0.0328               0.997463965     -6.30772099   2.24448174e-05      91.8380473   2.24448174e-05      91.8380473      0.997466735     -6.30575129
0.0336               0.997407623     -6.46153676   2.30577855e-05      91.8759975   2.30577855e-05      91.8759975      0.997410444     -6.45951658
0.0344               0.997351556     -6.61532796   2.36738043e-05      91.9091596   2.36738043e-05      91.9091596      0.997354427     -6.61325723
0.0352               0.997295758     -6.76910657   2.42929609e-05      91.9375522   2.42929609e-05      91.9375522      0.997298679      -6.7669852
0.036                0.997240231     -6.92287154   2.49152949e-05       91.961218   2.49152949e-05      91.9612181      0.997243201     -6.92069946
0.0368               0.997185934     -7.07656466    2.5540659e-05      91.9806993    2.5540659e-05      91.9806993      0.997188951      -7.0743418
0.0376                0.99712995     -7.23034611   2.61696067e-05      91.9945741   2.61696067e-05      91.9945741      0.997133015     -7.22807234
0.0384               0.997074197     -7.38410481   2.68018172e-05      92.0039037   2.68018173e-05      92.0039037       0.99707731     -7.38178004
0.0392               0.997018673     -7.53785147   2.74373654e-05      92.0087454   2.74373654e-05      92.0087454      0.997021833      -7.5354756
0.04                 0.996963377     -7.69158514   2.80762825e-05      92.0091714   2.80762825e-05      92.0091714      0.996966583     -7.68915808
0.0408               0.996909119     -7.84525653   2.87184421e-05      92.0056341   2.87184421e-05      92.0056342      0.996912371     -7.84277821
0.0416               0.996853419     -7.99900148   2.93643098e-05      91.9970628   2.93643098e-05      91.9970628      0.996856718     -7.99647176
0.0424               0.996797919     -8.15272504   3.00136095e-05      91.9843106   3.00136095e-05      91.9843106      0.996801264     -8.15014381
0.0432               0.996742615     -8.30643678   3.06664043e-05      91.9674453   3.06664043e-05      91.9674453      0.996746005     -8.30380394
0.044                0.996687507     -8.46013587   3.13227183e-05      91.9465452   3.13227183e-05      91.9465452      0.996690942     -8.45745132
0.0448               0.996633289     -8.61377991   3.19824396e-05      91.9219868   3.19824397e-05      91.9219869      0.996636769     -8.61104355
0.0456               0.996577821     -8.76748589    3.2645965e-05      91.8929366   3.26459651e-05      91.8929366      0.996581347     -8.76469756
0.0464               0.996522528     -8.92117144   3.33130524e-05      91.8600897   3.33130524e-05      91.8600897      0.996526099     -8.91833104
0.0472               0.996467404     -9.07484523   3.39837548e-05      91.8235128   3.39837549e-05      91.8235128      0.996471021     -9.07195264
0.048                0.996412452     -9.22850648   3.46580899e-05      91.7832805   3.46580899e-05      91.7832805      0.996416114     -9.22556157
0.0488               0.996358273     -9.38211823   3.53359572e-05      91.7397073   3.53359572e-05      91.7397073      0.996361979     -9.37912091
0.0496               0.996302999     -9.53578255   3.60176978e-05      91.6921269   3.60176978e-05      91.6921269       0.99630675     -9.53273265
0.0504               0.996247877     -9.68942702   3.67030962e-05      91.6411132   3.67030962e-05      91.6411132      0.996251674     -9.68632441
0.0512               0.996192906     -9.84305905   3.73921954e-05      91.5867274   3.73921954e-05      91.5867274      0.996196749      -9.8399036
0.052                0.996138086     -9.99667903   3.80850113e-05      91.5290363   3.80850113e-05      91.5290363      0.996141973     -9.99347061
0.0528               0.996083944     -10.1502558   3.87814576e-05      91.4683025   3.87814576e-05      91.4683025      0.996087877     -10.1469943
0.0536               0.996028831     -10.3038808    3.9481836e-05      91.4039806    3.9481836e-05      91.4039806      0.996032809      -10.300566
0.0544               0.995973853     -10.4574893   4.01859505e-05      91.3365503   4.01859505e-05      91.3365504      0.995977877     -10.4541211
0.0552               0.995919013     -10.6110756   4.08937903e-05      91.2660782   4.08937903e-05      91.2660783      0.995923083     -10.6076539
0.056                 0.99586431     -10.7646411   4.16053694e-05      91.1926225   4.16053694e-05      91.1926226      0.995868425     -10.7611657
0.0568               0.995810211     -10.9181622   4.23206233e-05      91.1164012   4.23206233e-05      91.1164013      0.995814372      -10.914633
0.0576               0.995755245     -11.0717245   4.30398321e-05      91.0369568   4.30398321e-05      91.0369568      0.995759452     -11.0681412
0.0584               0.995700398     -11.2252759   4.37628402e-05      90.9546884   4.37628402e-05      90.9546884      0.995704651     -11.2216385
0.0592               0.995645669      -11.378821   4.44896709e-05       90.869645   4.44896709e-05      90.8696451      0.995649969     -11.3751292
0.06                 0.995591059     -11.5323561   4.52203157e-05      90.7818826   4.52203157e-05      90.7818826      0.995595406     -11.5286098
0.0608               0.995536989     -11.6858528   4.59546859e-05      90.6915938    4.5954686e-05      90.6915938      0.995541382     -11.6820519
0.0616               0.995482141     -11.8393801   4.66929985e-05      90.5984005   4.66929985e-05      90.5984005      0.995486581     -11.8355244
0.0624               0.995427405     -11.9928844   4.74350843e-05      90.5026493   4.74350843e-05      90.5026494      0.995431893     -11.9889737
0.0632               0.995372779     -12.1463752   4.81809818e-05      90.4043779   4.81809818e-05      90.4043779      0.995377314     -12.1424093
0.064                0.995318262     -12.2998526   4.89306935e-05      90.3036314   4.89306935e-05      90.3036314      0.995322845     -12.2958314
0.0648               0.995264232     -12.4532934    4.9684145e-05      90.2005734    4.9684145e-05      90.2005734      0.995268862     -12.4492167
0.0656               0.995209496     -12.6067623   5.04415368e-05      90.0948787   5.04415368e-05      90.0948788      0.995214175     -12.6026298
0.0664               0.995154862     -12.7602125   5.12027201e-05      89.9868442   5.12027201e-05      89.9868442       0.99515959     -12.7560241
0.0672               0.995100328     -12.9136497   5.19677154e-05      89.8765051   5.19677154e-05      89.8765052      0.995105104     -12.9094052
0.068                0.995045894     -13.0670732   5.27365183e-05       89.763902   5.27365183e-05       89.763902      0.995050719     -13.0627724
0.0688               0.994991901     -13.2204618    5.3509058e-05      89.6491764    5.3509058e-05      89.6491764      0.994996775     -13.2161046
0.0696               0.994937267     -13.3738744    5.4285512e-05       89.532048    5.4285512e-05       89.532048      0.994942191     -13.3694605
0.0704               0.994882727     -13.5272683    5.5065742e-05      89.4127744    5.5065742e-05      89.4127744        0.9948877     -13.5227976
0.0712               0.994828278     -13.6806487   5.58497637e-05      89.2913863   5.58497637e-05      89.2913863      0.994833302     -13.6761209
0.072                0.994773921      -13.834015   5.66375697e-05      89.1679193   5.66375697e-05      89.1679193      0.994778995       -13.82943
0.0728               0.994719968      -13.987348   5.74290922e-05       89.042497   5.74290922e-05       89.042497      0.994725092     -13.9827056
0.0736               0.994665428     -14.1407013   5.82244884e-05      88.9148756   5.82244885e-05      88.9148756      0.994670603     -14.1360012
0.0744               0.994610975     -14.2940358    5.9023629e-05      88.7852803    5.9023629e-05      88.7852803      0.994616202     -14.2892778
0.0752               0.994556607     -14.4473563   5.98265253e-05      88.6537381   5.98265253e-05      88.6537382      0.994561886     -14.4425402
0.076                0.994502325     -14.6006624   6.06331671e-05      88.5202805   6.06331671e-05      88.5202805      0.994507655      -14.595788
0.0768               0.994448412     -14.7539363   6.14434892e-05       88.385016   6.14434892e-05       88.385016      0.994453795     -14.7490034
0.0776               0.994393962     -14.9072272   6.22576307e-05      88.2477311   6.22576307e-05      88.2477311      0.994399397     -14.9022356
0.0784               0.994339593     -15.0604992     6.307547e-05      88.1086241     6.307547e-05      88.1086241      0.994345081     -15.0554486
0.0792               0.994285303     -15.2137568   6.38970145e-05      87.9677188   6.38970145e-05      87.9677188      0.994290844     -15.2086469
0.08                 0.994231094     -15.3669995   6.47222513e-05      87.8250433   6.47222513e-05      87.8250433      0.994236688     -15.3618302
0.0808               0.994177224      -15.520211   6.55511171e-05      87.6806936   6.55511172e-05      87.6806936      0.994182873     -15.5149821
0.0816               0.994122861     -15.6734365   6.63837354e-05      87.5344813   6.63837354e-05      87.5344813      0.994128563     -15.6681478
0.0824               0.994068573     -15.8266429   6.72199905e-05      87.3865826   6.72199905e-05      87.3865826       0.99407433      -15.821294
0.0832                0.99401436     -15.9798341   6.80598855e-05      87.2370187   6.80598856e-05      87.2370187      0.994020172     -15.9744248
0.084                0.993960222     -16.1330102   6.89034073e-05      87.0858142   6.89034073e-05      87.0858142       0.99396609     -16.1275404
0.0848               0.993906399     -16.2861569   6.97504971e-05       86.933054   6.97504971e-05       86.933054      0.993912322     -16.2806263
0.0856               0.993852119     -16.4393167   7.06012672e-05      86.7785703   7.06012672e-05      86.7785704      0.993858098      -16.433725
0.0864                0.99379791     -16.5924586   7.14556066e-05      86.6225205   7.14556067e-05      86.6225205      0.993803945     -16.5868056
0.0872               0.993743774     -16.7455799   7.23134889e-05        86.46493   7.23134889e-05        86.46493      0.993749866     -16.7398653
0.088                 0.99368971     -16.8986812   7.31748999e-05      86.3058205   7.31748999e-05      86.3058205      0.993695859     -16.8929049
0.0888               0.993635941     -17.0517514   7.40397908e-05       86.145266   7.40397909e-05       86.145266      0.993642147      -17.045913
0.0896               0.993581747     -17.2048321   7.49082703e-05      85.9831147   7.49082703e-05      85.9831147      0.993588011     -17.1989313
0.0904                0.99352762     -17.3578972   7.57802447e-05       85.819505   7.57802447e-05       85.819505      0.993533942     -17.3519339
0.0912                0.99347356     -17.5109495   7.66557067e-05       85.654455   7.66557068e-05      85.6544551      0.993479941     -17.5049233
0.092                0.993419567     -17.6639869   7.75346299e-05      85.4879872   7.75346299e-05      85.4879872      0.993426006     -17.6578976
0.0928               0.993365847     -17.8169952   7.84169496e-05      85.3201717   7.84169496e-05      85.3201717      0.993372346     -17.8108426
0.0936               0.993311735     -17.9700092   7.93027453e-05      85.1508766   7.93027454e-05      85.1508767      0.993318293      -17.963793
0.0944               0.993257689     -18.1230012   8.01919125e-05      84.9802302   8.01919125e-05      84.9802302      0.993264307      -18.116721
0.0952               0.993203708     -18.2759762   8.10844526e-05      84.8082462   8.10844526e-05      84.8082462      0.993210387     -18.2696319
0.096                0.993149792     -18.4289346   8.19803454e-05      84.6349433   8.19803454e-05      84.6349434      0.993156531     -18.4225258
0.0968               0.993096132      -18.581864   8.28795323e-05      84.4603842   8.28795323e-05      84.4603843      0.993102932     -18.5753905
0.0976               0.993042106     -18.7347981   8.37820879e-05      84.2844491   8.37820879e-05      84.2844491      0.993048968     -18.7282596
0.0984               0.992988144      -18.887712   8.46879157e-05      84.1072533   8.46879158e-05      84.1072533      0.992995067     -18.8811082
0.0992               0.992934243     -19.0406089   8.55970077e-05       83.928811   8.55970077e-05       83.928811      0.992941228     -19.0339395
0.1                  0.992880405     -19.1934885   8.65093397e-05        83.74914   8.65093397e-05        83.74914      0.992887453     -19.1867533
0.1008               0.992826808     -19.3463395    8.7424854e-05      83.5682972    8.7424854e-05      83.5682972      0.992833918     -19.3395382
0.1016                0.99277287     -19.4991934   8.83436156e-05      83.3861747   8.83436156e-05      83.3861747      0.992780043     -19.4923257
0.1024               0.992718992     -19.6520266   8.92655315e-05      83.2028773   8.92655316e-05      83.2028773       0.99272623     -19.6450922
0.1032               0.992665175     -19.8048424   9.01905913e-05      83.0184185   9.01905913e-05      83.0184185      0.992672476     -19.7978409
0.104                0.992611418     -19.9576404   9.11187689e-05      82.8328145   9.11187689e-05      82.8328145      0.992618783     -19.9505716
0.1048               0.992557888       -20.11041   9.20500073e-05      82.6461176   9.20500074e-05      82.6461177      0.992565318     -20.1032736
0.1056                0.99250404     -20.2631806    9.2984363e-05      82.4582301    9.2984363e-05      82.4582301      0.992511535     -20.2559764
0.1064               0.992450251     -20.4159302   9.39217461e-05      82.2692479   9.39217461e-05      82.2692479      0.992457811     -20.4086578
0.1072                0.99239652     -20.5686619   9.48621438e-05      82.0791835   9.48621438e-05      82.0791835      0.992404146      -20.561321
0.108                0.992342848     -20.7213753   9.58055285e-05      81.8880521   9.58055286e-05      81.8880521       0.99235054     -20.7139656
0.1088                0.99228939     -20.8740604    9.6751844e-05      81.6959017    9.6751844e-05      81.6959017      0.992297149     -20.8665816
0.1096               0.992235635      -21.026745   9.77011386e-05      81.5026437   9.77011387e-05      81.5026437      0.992243461     -21.0191967
0.1104               0.992181937     -21.1794081   9.86533256e-05      81.3083662   9.86533256e-05      81.3083662       0.99218983     -21.1717901
0.1112               0.992128297     -21.3320528     9.960839e-05      81.1130807     9.960839e-05      81.1130807      0.992136257     -21.3243647
0.112                0.992074713     -21.4846786   0.000100566303      80.9168018   0.000100566303      80.9168018      0.992082741     -21.4769202
0.1128               0.992021333     -21.6372763   0.000101527008      80.7195736   0.000101527009      80.7195736      0.992029429     -21.6294472
0.1136               0.991967674     -21.7898718   0.000102490548      80.5213154   0.000102490548      80.5213154      0.991975839     -21.7819717
0.1144               0.991914071     -21.9424456   0.000103456838      80.3221085   0.000103456838      80.3221085      0.991922306     -21.9344741
0.1152               0.991860525     -22.0950003    0.00010442586      80.1219637    0.00010442586      80.1219637      0.991868828     -22.0869572
0.116                0.991807033     -22.2475357   0.000105397586      79.9208947   0.000105397586      79.9208947      0.991815407     -22.2394206
0.1168               0.991753736      -22.400043   0.000106371959      79.7189425   0.000106371959      79.7189425      0.991762179     -22.3918556
0.1176               0.991700177     -22.5525467   0.000107349015      79.5160334   0.000107349015      79.5160334      0.991708691     -22.5442866
0.1184               0.991646674     -22.7050281   0.000108328672      79.3122424   0.000108328672      79.3122425      0.991655258     -22.6966951
0.1192               0.991593225     -22.8574899   0.000109310911      79.1075801   0.000109310911      79.1075802       0.99160188     -22.8490835
0.12                 0.991539831      -23.009932   0.000110295701      78.9020591   0.000110295702      78.9020591      0.991548558     -23.0014519
0.1208               0.991486622     -23.1623465   0.000111282992      78.6957169   0.000111282992      78.6957169       0.99149542     -23.1537925
0.1216               0.991433167      -23.314757   0.000112272812      78.4884858   0.000112272812      78.4884858      0.991442037     -23.3061287
0.1224               0.991379766     -23.4671458   0.000113265083      78.2804355   0.000113265083      78.2804355      0.991388708     -23.4584428
0.1232                0.99132642     -23.6195115   0.000114259767      78.0715796   0.000114259767      78.0715796      0.991335435     -23.6107335
0.124                0.991273129     -23.7718544   0.000115256835        77.86193   0.000115256835        77.86193      0.991282217     -23.7630009
0.1248               0.991220014     -23.9241682   0.000116256239      77.6515203   0.000116256239      77.6515203      0.991229175      -23.915239
0.1256               0.991166669     -24.0764766   0.000117258011      77.4402872   0.000117258011      77.4402872      0.991175904     -24.0674714
0.1264               0.991113377     -24.2287645   0.000118262083      77.2282936   0.000118262083      77.2282936      0.991122686     -24.2196828
0.1272               0.991060138     -24.3810335   0.000119268428      77.0155496   0.000119268428      77.0155496      0.991069521     -24.3718751
0.128                0.991006951     -24.5332825   0.000120277011       76.802068   0.000120277011       76.802068      0.991016409      -24.524047
0.1288               0.990953934     -24.6855034   0.000121287775      76.5878823   0.000121287775      76.5878823      0.990963466     -24.6761903
0.1296                 0.9909007      -24.837716   0.000122300735      76.3729367   0.000122300735      76.3729367      0.990910308     -24.8283251
0.1304                0.99084752      -24.989904   0.000123315814      76.1572919   0.000123315814      76.1572919      0.990857203     -24.9804349
0.1312               0.990794393     -25.1420706   0.000124332994      75.9409559   0.000124332994      75.9409559      0.990804152     -25.1325229
0.132                0.990741319     -25.2942159   0.000125352243      75.7239396   0.000125352243      75.7239396      0.990751153     -25.2845892
0.1328               0.990688406     -25.4463328   0.000126373509      75.5062739   0.000126373509      75.5062739      0.990698317     -25.4366267
0.1336               0.990635291     -25.5984408   0.000127396806      75.2879066   0.000127396806      75.2879067      0.990645278     -25.5886551
0.1344               0.990582228     -25.7505251   0.000128422062       75.068894   0.000128422062       75.068894      0.990592292     -25.7406593
0.1352               0.990529218     -25.9025877   0.000129449253      74.8492444   0.000129449253      74.8492444      0.990539359     -25.8926415
0.136                 0.99047626     -26.0546285   0.000130478347      74.6289686   0.000130478347      74.6289687      0.990486478     -26.0446014
0.1368               0.990423457     -26.2066407    0.00013150929      74.4080956   0.000131509291      74.4080956      0.990433754     -26.1965325
0.1376               0.990370464      -26.358643   0.000132542095      74.1865772   0.000132542095      74.1865772      0.990380839     -26.3484532
0.1384               0.990317524     -26.5106211    0.00013357669      73.9644659    0.00013357669       73.964466      0.990327976     -26.5003492
0.1392               0.990264635      -26.662577   0.000134613053        73.74177   0.000134613053        73.74177      0.990275166     -26.6522228
0.14                 0.990211798     -26.8145105   0.000135651149      73.5184995   0.000135651149      73.5184995      0.990222408     -26.8040736
0.1408               0.990159112     -26.9664154   0.000136690927      73.2946818   0.000136690927      73.2946818        0.9901698     -26.9558953
0.1416               0.990106246     -27.1183092   0.000137732395      73.0702722   0.000137732395      73.0702722      0.990117014     -27.1077056
0.1424               0.990053432     -27.2701783   0.000138775484      72.8453201   0.000138775484      72.8453202      0.990064279     -27.2594908
0.1432                0.99000067     -27.4220248   0.000139820171      72.6198333   0.000139820171      72.6198333      0.990011597     -27.4112529
0.144                 0.98994796     -27.5738484   0.000140866421      72.3938214   0.000140866421      72.3938214      0.989958967     -27.5629918
0.1448               0.989895395     -27.7256431   0.000141914185      72.1673101   0.000141914185      72.1673101      0.989906482     -27.7147014
0.1456               0.989842661     -27.8774258   0.000142963466      71.9402582   0.000142963466      71.9402582      0.989853828     -27.8663986
0.1464               0.989789979     -28.0291833   0.000144014199      71.7127118   0.000144014199      71.7127119      0.989801227     -28.0180702
0.1472               0.989737348     -28.1809177    0.00014506636      71.4846785    0.00014506636      71.4846785      0.989748677     -28.1697183
0.148                 0.98968477     -28.3326288   0.000146119914      71.2561676   0.000146119914      71.2561676       0.98969618     -28.3213426
0.1488               0.989632332     -28.4843107   0.000147174813      71.0272031   0.000147174813      71.0272031      0.989643823     -28.4729373
0.1496               0.989579735     -28.6359795   0.000148231058      70.7977468   0.000148231058      70.7977468      0.989591307     -28.6245186
0.1504               0.989527189     -28.7876228   0.000149288585      70.5678422   0.000149288585      70.5678422      0.989538844      -28.776074
0.1512               0.989474696     -28.9392425    0.00015034737      70.3374964    0.00015034737      70.3374964      0.989486432     -28.9276052
0.152                0.989422254     -29.0908383   0.000151407379      70.1067183   0.000151407379      70.1067183      0.989434073     -29.0791122
0.1528               0.989369949     -29.2424047   0.000152468565      69.8755306   0.000152468565      69.8755306      0.989381849     -29.2305895
0.1536               0.989317493     -29.3939571   0.000153530926      69.6438978   0.000153530926      69.6438978      0.989329477     -29.3820523
0.1544                0.98926509     -29.5454836     0.0001545944      69.4118609     0.0001545944      69.4118609      0.989277156     -29.5334887
0.1552               0.989212738     -29.6969859   0.000155658964      69.1794265   0.000155658964      69.1794265      0.989224887     -29.6849005
0.156                0.989160439     -29.8484639   0.000156724584      68.9466032   0.000156724584      68.9466032      0.989172671     -29.8362875
0.1568               0.989108271     -29.9999123   0.000157791214      68.7134125   0.000157791214      68.7134125      0.989120586     -29.9876446