! TOUCHSTONE file generated by CST MICROWAVE STUDIO
! Date and time: Thu Oct 30 13:39:44 2025
! Project name: ResonadorAnillo_PadsGndDesplazados_AnchoPistaPin.cst
! Parameters = {T_teflom=1.52; Eeff=3.2262; Er=4.3; H=1.56; L1=41.7557; L2=41.7557; L_Ang=8.68; L_AngTrans=1; L_Base=6.5; L_PadGND=4; L_Pin=4; L_conn=4; L_sma=8.5; Landa=167.023; R_Diel=2.08; R_Pin=0.45; R_sma=2.58; T=0.035; W=2.6; W_Base=1.5; W_PadGND=1.8; W_PistaPin=2.5; W_conn=0.9; Wa=2.6; X=70; Y=113.294; c=3e+11; d_Borde=0.27; f=1e+09; r=26.5825; s=0.3}
! Header version: 2024
! Port assignment regex: !\s*Touchstone port\s*([0-9]+)\s*=\s*(CST MWS port|CST DES external port|CST DES block port)\s*(.+)\s* \(\"(.*)\"\)(\s*mode\s*([0-9]+))?.*
! Touchstone port assignment:
! Touchstone port 1 = CST MWS port 1 ("")
! Touchstone port 2 = CST MWS port 2 ("")
# GHz S MA R 62.45
0                     1.00000889               0   1.88724519e-07               0    1.8872455e-07               0       1.00000887               0
0.0008               0.999931017    -0.155314934   3.96573466e-07      164.454213   3.96573465e-07      164.454212      0.999931014    -0.155571959
0.0016               0.999858215    -0.310701001   7.29838199e-07      75.9437956   7.29838202e-07      75.9437956        0.9998582    -0.311213416
0.0024               0.999786066    -0.466120026   1.81909098e-06      77.9881257   1.81909098e-06      77.9881257      0.999786029    -0.466888641
0.0032                0.99971428    -0.621532329   2.75673747e-06      82.7931149   2.75673747e-06      82.7931149      0.999714227    -0.622557411
0.004                0.999642585    -0.776936871   3.59121177e-06      85.5262935   3.59121177e-06      85.5262935      0.999642519    -0.778218401
0.0048               0.999570898    -0.932336367   4.37427723e-06      87.0282184   4.37427723e-06      87.0282184       0.99957082    -0.933874283
0.0056               0.999499193     -1.08773238   5.13159407e-06      87.8637423   5.13159407e-06      87.8637423      0.999499104     -1.08952662
0.0064               0.999427463     -1.24312553   5.87582119e-06      88.3289673   5.87582119e-06      88.3289673      0.999427362     -1.24517603
0.0072               0.999355701     -1.39851533   6.61357693e-06      88.5808143   6.61357693e-06      88.5808143       0.99935559     -1.40082202
0.008                0.999283907     -1.55390253   7.34855528e-06      88.7057893   7.34855528e-06      88.7057893      0.999283786     -1.55646536
0.0088               0.999207477     -1.70954758   8.08417003e-06       88.744622   8.08417003e-06       88.744622      0.999207339     -1.71236683
0.0096               0.999130122     -1.86524308   8.82081834e-06      88.7354352   8.82081834e-06      88.7354352      0.999129968     -1.86831874
0.0104                 0.9990628     -2.02043507   9.55683894e-06      88.7140761   9.55683894e-06      88.7140761      0.999062641     -2.02376639
0.0112               0.999007852     -2.17533179   1.02939208e-05      88.6914264   1.02939208e-05      88.6914264      0.999007705     -2.17891828
0.012                0.998955188     -2.33046186    1.1035081e-05      88.6566187    1.1035081e-05      88.6566187      0.998955057     -2.33430374
0.0128               0.998901215     -2.48586996   1.17809702e-05      88.6092724   1.17809702e-05      88.6092724      0.998901098      -2.4899675
0.0136               0.998840723     -2.64164626   1.25323951e-05      88.5464252   1.25323951e-05      88.5464252      0.998840612     -2.64599988
0.0144               0.998781325     -2.79715146   1.32867592e-05      88.4806528   1.32867592e-05      88.4806528      0.998781221     -2.80176069
0.0152                0.99872293     -2.95258206   1.40453917e-05      88.4126148   1.40453917e-05      88.4126148      0.998722836     -2.95744668
0.016                0.998665518      -3.1079813   1.48089127e-05      88.3425862   1.48089127e-05      88.3425862      0.998665435     -3.11310117
0.0168               0.998612574     -3.26313941   1.55767929e-05      88.2741078   1.55767929e-05      88.2741078      0.998612507     -3.26851409
0.0176               0.998553935     -3.41862156    1.6352104e-05      88.1962208    1.6352104e-05      88.1962208      0.998553878     -3.42425136
0.0184               0.998495991     -3.57405383   1.71336229e-05      88.1151893   1.71336229e-05      88.1151893      0.998495945     -3.57993855
0.0192               0.998438732     -3.72945965   1.79220033e-05      88.0300381   1.79220033e-05      88.0300381      0.998438697     -3.73559911
0.02                 0.998382156     -3.88483869   1.87178222e-05       87.939547   1.87178222e-05       87.939547      0.998382134     -3.89123271
0.0208               0.998328826     -4.04003953   1.95209946e-05      87.8443859   1.95209946e-05      87.8443859      0.998328822     -4.04668772
0.0216               0.998271417     -4.19547153   2.03340326e-05       87.736484   2.03340326e-05       87.736484      0.998271425     -4.20237404
0.0224               0.998214531      -4.3508689   2.11563516e-05      87.6176833   2.11563516e-05      87.6176833      0.998214553     -4.35802552
0.0232               0.998158165     -4.50624735   2.19886364e-05      87.4853089   2.19886364e-05      87.4853089      0.998158201     -4.51365787
0.024                0.998102319     -4.66160507    2.2831407e-05      87.3361921    2.2831407e-05      87.3361921       0.99810237     -4.66926929
0.0248               0.998048879     -4.81682972   2.36845132e-05      87.1679422   2.36845132e-05      87.1679422      0.998048949     -4.82474725
0.0256               0.997992334     -4.97222732   2.45494472e-05      86.9721819   2.45494472e-05      86.9721819      0.997992419     -4.98039819
0.0264               0.997936213     -5.12759402   2.54249008e-05      86.7464592   2.54249008e-05      86.7464592      0.997936314     -5.13601797
0.0272               0.997880514     -5.28294482    2.6309873e-05      86.4850431    2.6309873e-05      86.4850431      0.997880631     -5.29162161
0.028                 0.99782524     -5.43827849    2.7202242e-05      86.1817452    2.7202242e-05      86.1817452      0.997825376     -5.44720785
0.0288               0.997771858     -5.59350755   2.80980142e-05      85.8312029   2.80980142e-05      85.8312029      0.997772014     -5.60268908
0.0296               0.997716029     -5.74887233    2.8992739e-05       85.425013    2.8992739e-05       85.425013      0.997716204     -5.75830596
0.0304               0.997660568     -5.90421063   2.98776412e-05      84.9610836   2.98776412e-05      84.9610836      0.997660764     -5.91389605
0.0312               0.997605473     -6.05953662   3.07419892e-05      84.4389437   3.07419892e-05      84.4389437      0.997605692     -6.06947355
0.032                0.997550743     -6.21484994   3.15723544e-05      83.8637347   3.15723544e-05      83.8637347      0.997550987     -6.22503809
0.0328               0.997497545     -6.37008059   3.23533576e-05      83.2490847   3.23533576e-05      83.2490847      0.997497819     -6.38051959
0.0336               0.997442334     -6.52542408   3.30713468e-05      82.6153209   3.30713468e-05      82.6153209      0.997442638     -6.53611385
0.0344               0.997387397     -6.68074737   3.37148629e-05      81.9950136   3.37148629e-05      81.9950136      0.997387734     -6.69168769
0.0352               0.997332706     -6.83606269   3.42803292e-05      81.4250866   3.42803292e-05      81.4250866      0.997333079     -6.84725341
0.036                0.997278236     -6.99136858    3.4773705e-05      80.9420331    3.4773705e-05      80.9420331      0.997278647     -7.00280954
0.0368               0.997224935     -7.14660521   3.52102163e-05      80.5750242   3.52102163e-05      80.5750242      0.997225387     -7.15829621
0.0376               0.997169848     -7.30193311   3.56126621e-05      80.3375969   3.56126621e-05      80.3375969      0.997170339     -7.31387417
0.0384                0.99711491     -7.45723866   3.60045827e-05      80.2301109   3.60045827e-05      80.2301109      0.997115441     -7.46942961
0.0392               0.997060125     -7.61253147   3.64075116e-05      80.2385354   3.64075116e-05      80.2385354      0.997060695     -7.62497212
0.04                 0.997005505     -7.76780974   3.68374998e-05      80.3404851   3.68374998e-05      80.3404851      0.997006114     -7.78049989
0.0408               0.996951883      -7.9230232   3.73041468e-05      80.5110645   3.73041468e-05      80.5110645       0.99695253     -7.93596253
0.0416               0.996896768     -8.07830895   3.78122871e-05      80.7252193   3.78122871e-05      80.7252193      0.996897451     -8.09149729
0.0424               0.996841828     -8.23357107   3.83616989e-05      80.9636181   3.83616989e-05      80.9636181      0.996842546     -8.24700811
0.0432               0.996787069     -8.38881944   3.89500246e-05       81.210771   3.89500246e-05       81.210771      0.996787822     -8.40250484
0.044                0.996732497     -8.54405342   3.95735157e-05      81.4556177   3.95735157e-05      81.4556177      0.996733285     -8.55798686
0.0448               0.996678817     -8.69923044   4.02277791e-05      81.6911022   4.02277791e-05      81.6911022       0.99667964     -8.71341149
0.0456               0.996623873     -8.85446894    4.0909118e-05      81.9118137    4.0909118e-05      81.9118137       0.99662473     -8.86889737
0.0464               0.996569102     -9.00968593   4.16133762e-05       82.115943   4.16133762e-05       82.115943      0.996569993     -9.02436136
0.0472               0.996514502     -9.16489032   4.23372348e-05      82.3024784   4.23372348e-05      82.3024784      0.996515428     -9.17981239
0.048                0.996460074     -9.32008151   4.30778204e-05      82.4713547   4.30778204e-05      82.4713547      0.996461035     -9.33524984
0.0488               0.996406426     -9.47522228   4.38325784e-05      82.6233321   4.38325784e-05      82.6233321      0.996407423     -9.49063646
0.0496               0.996351672     -9.63041588   4.45999149e-05      82.7585285   4.45999149e-05      82.7585285      0.996352705      -9.6460756
0.0504               0.996297071     -9.78558921   4.53779029e-05       82.878479   4.53779029e-05       82.878479       0.99629814      -9.8014941
0.0512               0.996242621     -9.94074984   4.61652366e-05      82.9842728   4.61652366e-05      82.9842728      0.996243726     -9.95689951
0.052                 0.99618832     -10.0958982   4.69608256e-05      83.0770052   4.69608256e-05      83.0770052      0.996189463     -10.1122923
0.0528               0.996134703     -10.2510029   4.77636591e-05      83.1579272   4.77636591e-05      83.1579272      0.996135884     -10.2676409
0.0536               0.996080102     -10.4061564   4.85733707e-05      83.2274181   4.85733707e-05      83.2274181      0.996081321     -10.4230381
0.0544               0.996025634     -10.5612932    4.9389119e-05      83.2868105    4.9389119e-05      83.2868105      0.996026892     -10.5784181
0.0552               0.995971302     -10.7164078   5.02104021e-05      83.3369462   5.02104021e-05      83.3369462      0.995972599     -10.7337755
0.056                0.995917104     -10.8715014   5.10368393e-05      83.3785829   5.10368393e-05      83.3785829      0.995918441     -10.8891115
0.0568               0.995863512     -11.0265502   5.18680279e-05      83.4125662   5.18680279e-05      83.4125662      0.995864891     -11.0444023
0.0576               0.995809039     -11.1816409   5.27040466e-05      83.4389981   5.27040466e-05      83.4389981      0.995810459     -11.1997345
0.0584               0.995754683     -11.3367207   5.35444906e-05      83.4587774   5.35444906e-05      83.4587774      0.995756144     -11.3550555
0.0592                0.99570044     -11.4917942   5.43892146e-05      83.4723964   5.43892146e-05      83.4723964      0.995701944     -11.5103698
0.06                 0.995646313     -11.6468579   5.52380673e-05      83.4803044   5.52380673e-05      83.4803044       0.99564786     -11.6656738
0.0608               0.995592725      -11.801883   5.60908273e-05      83.4830437   5.60908273e-05      83.4830437      0.995594316     -11.8209386
0.0616               0.995538345     -11.9569392   5.69476678e-05      83.4805443   5.69476678e-05      83.4805443      0.995539981     -11.9762343
0.0624               0.995484073     -12.1119723   5.78083107e-05      83.4734276   5.78083107e-05      83.4734276      0.995485754     -12.1315064
0.0632               0.995429906     -12.2669919   5.86727463e-05      83.4619734   5.86727463e-05      83.4619734      0.995431632     -12.2867646
0.064                0.995375843     -12.4219984   5.95409338e-05      83.4464421   5.95409338e-05      83.4464421      0.995377615     -12.4420091
0.0648               0.995322264      -12.576968   6.04127498e-05      83.4271877   6.04127498e-05      83.4271877      0.995324084     -12.5972162
0.0656               0.995267968     -12.7319662   6.12884132e-05      83.4040533   6.12884132e-05      83.4040533      0.995269835     -12.7524516
0.0664               0.995213767     -12.8869457   6.21677272e-05      83.3774853   6.21677272e-05      83.3774853      0.995215683     -12.9076678
0.0672               0.995159661     -13.0419123    6.3050706e-05      83.3476516    6.3050706e-05      83.3476516      0.995161625     -13.0628706
0.068                0.995105649     -13.1968653   6.39373394e-05      83.3147099   6.39373394e-05      83.3147099      0.995107662     -13.2180593
0.0688               0.995052075     -13.3517834   6.48275416e-05       83.278906   6.48275416e-05       83.278906      0.995054139     -13.3732125
0.0696               0.994997847     -13.5067258   6.57215295e-05      83.2400513   6.57215295e-05      83.2400513      0.994999962     -13.5283897
0.0704               0.994943707     -13.6616496   6.66191428e-05      83.1984853   6.66191428e-05      83.1984853      0.994945873     -13.6835477
0.0712               0.994889653       -13.81656   6.75204094e-05      83.1543109   6.75204094e-05      83.1543109      0.994891871     -13.8386918
0.072                0.994835684     -13.9714564   6.84253318e-05      83.1076277   6.84253318e-05      83.1076277      0.994837955     -13.9938215
0.0728               0.994782115     -14.1263194   6.93338417e-05       83.058616   6.93338417e-05       83.058616       0.99478444     -14.1489171
0.0736               0.994727947     -14.2812031    7.0246143e-05      83.0070816    7.0246143e-05      83.0070816      0.994730326      -14.304033
0.0744                0.99467386     -14.4360681   7.11620963e-05      82.9532942   7.11620963e-05      82.9532942      0.994676294     -14.4591296
0.0752               0.994619851     -14.5909192   7.20817329e-05      82.8973196   7.20817329e-05      82.8973196       0.99462234     -14.6142118
0.076                0.994565922     -14.7457559    7.3005059e-05      82.8392237    7.3005059e-05      82.8392237      0.994568467     -14.7692791
0.0768               0.994512358     -14.9005604   7.39320157e-05      82.7791452   7.39320157e-05      82.7791452       0.99451496     -14.9243136
0.0776               0.994458244     -15.0553823   7.48627899e-05      82.7168965   7.48627899e-05      82.7168965      0.994460904      -15.079365
0.0784               0.994404205     -15.2101853   7.57972563e-05      82.6526996   7.57972563e-05      82.6526996      0.994406922      -15.234397
0.0792               0.994350238      -15.364974   7.67354453e-05      82.5865982   7.67354453e-05      82.5865982      0.994353015      -15.389414
0.08                 0.994296345     -15.5197479   7.76773631e-05       82.518638   7.76773631e-05       82.518638      0.994299181     -15.5444157
0.0808               0.994242788     -15.6744906   7.86229561e-05      82.4489301   7.86229561e-05      82.4489301      0.994245684     -15.6993856
0.0816               0.994188724     -15.8292477   7.95723939e-05       82.377299   7.95723939e-05       82.377299      0.994191681     -15.8543693
0.0824               0.994134729     -15.9839856   8.05255612e-05      82.3039321   8.05255612e-05      82.3039321      0.994137748     -16.0093334
0.0832               0.994080802     -16.1387085   8.14824847e-05      82.2288601   8.14824847e-05      82.2288601      0.994083883     -16.1642817
0.084                0.994026944     -16.2934163   8.24431717e-05      82.1521155   8.24431717e-05      82.1521155      0.994030088     -16.3192145
0.0848               0.993973396     -16.4480947   8.34075755e-05      82.0737899   8.34075755e-05      82.0737899      0.993976604     -16.4741171
0.0856               0.993919378     -16.6027867   8.43758531e-05      81.9937206   8.43758531e-05      81.9937206      0.993922651     -16.6290328
0.0864               0.993865425     -16.7574607    8.5347896e-05      81.9120693    8.5347896e-05      81.9120693      0.993868763     -16.7839299
0.0872               0.993811538     -16.9121142    8.6323696e-05      81.8288649    8.6323696e-05      81.8288649      0.993814941     -16.9388059
0.088                0.993757716     -17.0667477   8.73032603e-05      81.7441316   8.73032603e-05      81.7441316      0.993761186     -17.0936613
0.0888               0.993704183     -17.2213501   8.82865546e-05      81.6579451   8.82865546e-05      81.6579451       0.99370772     -17.2484849
0.0896               0.993650215     -17.3759633   8.92737316e-05      81.5701544   8.92737316e-05      81.5701544       0.99365382     -17.4033187
0.0904               0.993596306      -17.530561    9.0264704e-05      81.4808982    9.0264704e-05      81.4808982       0.99359998     -17.5581364
0.0912               0.993542457      -17.685146   9.12594871e-05      81.3901947   9.12594871e-05      81.3901947        0.9935462     -17.7129407
0.092                0.993488668     -17.8397162   9.22580734e-05      81.2980656   9.22580734e-05      81.2980656      0.993492481     -17.8677296
0.0928               0.993435147     -17.9942573   9.32604101e-05      81.2045802   9.32604101e-05      81.2045802      0.993439032     -18.0224888
0.0936               0.993381222     -18.1488043   9.42666151e-05      81.1096048   9.42666151e-05      81.1096048      0.993385178     -18.1772532
0.0944               0.993327357     -18.3033294   9.52765885e-05      81.0132662   9.52765885e-05      81.0132662      0.993331385      -18.331995
0.0952               0.993273549     -18.4578376   9.62903562e-05       80.915576   9.62903562e-05       80.915576       0.99327765     -18.4867193
0.096                0.993219798     -18.6123292   9.73079181e-05      80.8165506   9.73079181e-05      80.8165506      0.993223973     -18.6414263
0.0968               0.993166299     -18.7667918    9.8329229e-05      80.7162502    9.8329229e-05      80.7162502      0.993170548     -18.7961036
0.0976               0.993112423     -18.9212594   9.93544005e-05       80.614552   9.93544005e-05       80.614552      0.993116747     -18.9507853
0.0984               0.993058602     -19.0757068   0.000100383343      80.5115686   0.000100383343      80.5115686      0.993063002     -19.1054461
0.0992               0.993004836     -19.2301373    0.00010141607      80.4073111    0.00010141607      80.4073111      0.993009313     -19.2600893
0.1                  0.992951126     -19.3845507   0.000102452578      80.3017942   0.000102452578      80.3017942       0.99295568     -19.4147146
0.1008                0.99289765     -19.5389353   0.000103492823      80.1950716   0.000103492823      80.1950716      0.992902283     -19.5693105
0.1016               0.992843823     -19.6933231   0.000104536903      80.0870316   0.000104536903      80.0870316      0.992848535     -19.7239089
0.1024                0.99279005     -19.8476903   0.000105584735      79.9777761   0.000105584735      79.9777761      0.992794841     -19.8784859
0.1032               0.992736329     -20.0020401   0.000106636329      79.8673148   0.000106636329      79.8673148      0.992741201     -20.0330449
0.104                0.992682661     -20.1563722   0.000107691679      79.7556605   0.000107691679      79.7556605      0.992687614     -20.1875854
0.1048               0.992629215     -20.3106758    0.00010875074      79.6428619    0.00010875074      79.6428619       0.99263425     -20.3420967
0.1056               0.992575439     -20.4649808   0.000109813604      79.5288175   0.000109813604      79.5288175      0.992580557     -20.4966087
0.1064               0.992521715     -20.6192648   0.000110880188      79.4136199   0.000110880188      79.4136199      0.992526917     -20.6510989
0.1072               0.992468043     -20.7735309   0.000111950501      79.2972777   0.000111950501      79.2972777      0.992473329     -20.8055705
0.108                0.992414421     -20.9277787   0.000113024533      79.1798027   0.000113024533      79.1798027      0.992419792     -20.9600231
0.1088               0.992361008     -21.0819983   0.000114102243      79.0612393   0.000114102243      79.0612393      0.992366465     -21.1144467
0.1096               0.992307287     -21.2362175   0.000115183711       78.941495   0.000115183711       78.941495      0.992312831     -21.2688691
0.1104               0.992253617     -21.3904154   0.000116268858      78.8206545   0.000116268858      78.8206545      0.992259248     -21.4232695
0.1112               0.992199996     -21.5445948    0.00011735769      78.6987259    0.00011735769      78.6987259      0.992205715     -21.5776506
0.112                0.992146424     -21.6987555   0.000118450197        78.57572   0.000118450197        78.57572      0.992152232     -21.7320123
0.1128                0.99209305     -21.8528879   0.000119546337      78.4516776   0.000119546337      78.4516776      0.992098948     -21.8863449
0.1136               0.992039387     -22.0070185   0.000120646182      78.3265144   0.000120646182      78.3265144      0.992045376     -22.0406748
0.1144               0.991985773     -22.1611273   0.000121749655      78.2003082   0.000121749655      78.2003082      0.991991853     -22.1949822
0.1152               0.991932208     -22.3152171   0.000122856762      78.0730666   0.000122856762      78.0730666      0.991938379     -22.3492699
0.116                 0.99187869     -22.4692877    0.00012396749      77.9447998    0.00012396749      77.9447998      0.991884955     -22.5035375
0.1168               0.991825361     -22.6233301   0.000125081797      77.8155456   0.000125081797      77.8155456      0.991831719     -22.6577761
0.1176               0.991771759      -22.777369   0.000126199746      77.6852267   0.000126199746      77.6852267      0.991778212     -22.8120105
0.1184               0.991718206     -22.9313858   0.000127321267      77.5539153   0.000127321267      77.5539153      0.991724754     -22.9662219
0.1192                 0.9916647     -23.0853829   0.000128446359      77.4216184   0.000128446359      77.4216184      0.991671345     -23.1204128
0.12                 0.991611242     -23.2393604    0.00012957501      77.2883457    0.00012957501      77.2883457      0.991617983     -23.2745832
0.1208               0.991557961     -23.3933104   0.000130707183      77.1541316   0.000130707183      77.1541316        0.9915648     -23.4287253
0.1216               0.991504426     -23.5472565   0.000131842935      77.0189052   0.000131842935      77.0189052      0.991511363     -23.5828627
0.1224               0.991450937     -23.7011809   0.000132982197      76.8827333   0.000132982197      76.8827333      0.991457974     -23.7369777
0.1232               0.991397495     -23.8550822   0.000134124947      76.7456265   0.000134124947      76.7456265      0.991404632     -23.8910686
0.124                0.991344101     -24.0089607   0.000135271173      76.6075939   0.000135271173      76.6075939      0.991351339     -24.0451359
0.1248               0.991290878     -24.1628101   0.000136420843      76.4686662   0.000136420843      76.4686662      0.991298217     -24.1991732
0.1256               0.991237414     -24.3166542   0.000137574018       76.328777   0.000137574018       76.328777      0.991244856     -24.3532045
0.1264               0.991183996      -24.470478   0.000138730637      76.1879868   0.000138730637      76.1879868      0.991191541     -24.5072145
0.1272               0.991130622     -24.6242829   0.000139890695      76.0463028   0.000139890695      76.0463028      0.991138272     -24.6612048
0.128                0.991077295     -24.7780678   0.000141054171       75.903735   0.000141054171       75.903735       0.99108505     -24.8151742
0.1288                0.99102413     -24.9318245   0.000142221022      75.7603147   0.000142221022      75.7603147      0.991031991     -24.9691145
0.1296                0.99097074     -25.0855731   0.000143391286       75.615983   0.000143391286       75.615983      0.990978708     -25.1230459
0.1304               0.990917396     -25.2392971   0.000144564898      75.4707984   0.000144564898      75.4707984      0.990925471     -25.2769519
0.1312               0.990864097     -25.3929998   0.000145741856      75.3247663   0.000145741856      75.3247663      0.990872281     -25.4308355
0.132                0.990810844     -25.5466811   0.000146922147      75.1778952   0.000146922147      75.1778952      0.990819137      -25.584697
0.1328               0.990757747      -25.700334    0.00014810573      75.0302136    0.00014810573      75.0302136       0.99076615      -25.738529
0.1336               0.990704437     -25.8539782   0.000149292644      74.8816669   0.000149292644      74.8816669      0.990712951     -25.8923516
0.1344               0.990651172     -26.0075986   0.000150482826       74.732309   0.000150482826       74.732309      0.990659798     -26.0461494
0.1352               0.990597952     -26.1611974   0.000151676272      74.5821462   0.000151676272      74.5821462      0.990606691     -26.1999247
0.136                0.990544778     -26.3147744   0.000152872962      74.4311869   0.000152872962      74.4311869       0.99055363     -26.3536773
0.1368               0.990491753     -26.4683228    0.00015407286      74.2794578    0.00015407286      74.2794578      0.990500719     -26.5074003
0.1376               0.990438528     -26.6218613   0.000155275996      74.1269088   0.000155275996      74.1269088      0.990447609     -26.6611127
0.1384               0.990385348     -26.7753756   0.000156482311      73.9735902   0.000156482311      73.9735902      0.990394545     -26.8147998
0.1392               0.990332212     -26.9288678   0.000157691799      73.8195082   0.000157691799      73.8195082      0.990341527     -26.9684639
0.14                 0.990279122     -27.0823377   0.000158904441       73.664671   0.000158904441       73.664671      0.990288554     -27.1221047
0.1408               0.990226176     -27.2357787   0.000160120198      73.5091037   0.000160120198      73.5091037      0.990235726     -27.2757158
0.1416                0.99017304     -27.3892089   0.000161339099      73.3527599   0.000161339099      73.3527599       0.99018271      -27.429315
0.1424                0.99011995     -27.5426144   0.000162561086       73.195687   0.000162561086       73.195687      0.990129741     -27.5828886
0.1432               0.990066905     -27.6959972    0.00016378615      73.0378909    0.00016378615      73.0378909      0.990076816     -27.7364386
0.144                0.990013904     -27.8493572   0.000165014274      72.8793796   0.000165014274      72.8793796      0.990023937     -27.8899648
0.1448               0.989961042     -28.0026882   0.000166245418      72.7201769   0.000166245418      72.7201769      0.989971198     -28.0434611
0.1456               0.989908002     -28.1560073   0.000167479607      72.5602397   0.000167479607      72.5602397      0.989918282     -28.1969444
0.1464               0.989855007     -28.3093012   0.000168716784      72.3996127   0.000168716784      72.3996127      0.989865412     -28.3504017
0.1472               0.989802056      -28.462572   0.000169956941      72.2383016   0.000169956941      72.2383016      0.989812587     -28.5038348
0.148                 0.98974915     -28.6158194   0.000171200059       72.076314   0.000171200059       72.076314      0.989759807     -28.6572436
0.1488               0.989696379     -28.7690376   0.000172446099      71.9136726   0.000172446099      71.9136726      0.989707163     -28.8106222
0.1496               0.989643439     -28.9222429   0.000173695082      71.7503375   0.000173695082      71.7503375      0.989654352     -28.9639869
0.1504               0.989590545     -29.0754226   0.000174946953      71.5863506   0.000174946953      71.5863506      0.989601586      -29.117325
0.1512               0.989537695     -29.2285786   0.000176201703      71.4217175   0.000176201703      71.4217175      0.989548866     -29.2706384
0.152                 0.98948489     -29.3817108   0.000177459312      71.2564458   0.000177459312      71.2564458      0.989496192      -29.423927
0.1528               0.989432215     -29.5348135   0.000178719743      71.0905567   0.000178719743      71.0905567      0.989443648     -29.5771851
0.1536               0.989379381     -29.6879024   0.000179983012      70.9240132   0.000179983012      70.9240132      0.989390947     -29.7304283
0.1544               0.989326593     -29.8409652   0.000181249066       70.756855   0.000181249066       70.756855      0.989338292     -29.8836445
0.1552               0.989273849     -29.9940038   0.000182517897      70.5890875   0.000182517897      70.5890875      0.989285683     -30.0368355
0.156                 0.98922115     -30.1470181   0.000183789482      70.4207179   0.000183789482      70.4207179      0.989233119     -30.1900011
0.1568               0.989168577     -30.3000028   0.000185063786      70.2517665   0.000185063786      70.2517665      0.989180682     -30.3431361