! TOUCHSTONE file generated by CST MICROWAVE STUDIO
! Date and time: Thu Oct 30 15:02:35 2025
! Project name: ResonadorAnillo_PadsGndDesplazados_AnchoPistaPin.cst
! Parameters = {Eeff=3.2262; Er=4.3; H=1.56; L1=41.7557; L2=41.7557; L_Ang=8.68; L_AngTrans=1; L_Base=6.5; L_PadGND=4; L_Pin=4; L_conn=4; L_sma=8.5; Landa=167.023; R_Diel=2.08; R_Pin=0.45; R_sma=2.58; T=0.035; T_teflom=1.52; W=2.6; W_Base=1.5; W_PadGND=1.8; W_PistaPin=2.5; W_conn=0.9; Wa=2.6; X=70; Y=113.294; c=3e+11; d_Borde=0.27; f=1e+09; r=26.5825; s=0.3}
! Header version: 2024
! Port assignment regex: !\s*Touchstone port\s*([0-9]+)\s*=\s*(CST MWS port|CST DES external port|CST DES block port)\s*(.+)\s* \(\"(.*)\"\)(\s*mode\s*([0-9]+))?.*
! Touchstone port assignment:
! Touchstone port 1 = CST MWS port 1 ("")
! Touchstone port 2 = CST MWS port 2 ("")
# GHz S MA R 62.5
0                     1.00001118               0   2.76353845e-07             180   2.76353709e-07             180       1.00001103               0
0.0008                0.99992655    -0.167637509    5.2192075e-06      -68.475653   5.21920743e-06     -68.4756524      0.999926421    -0.167938124
0.0016               0.999851508    -0.336194029    5.1633822e-06      68.6012678   5.16338221e-06       68.601268      0.999851369    -0.336797241
0.0024               0.999777837    -0.504352839   7.59512661e-06      82.5286417   7.59512661e-06      82.5286417      0.999777643    -0.505256935
0.0032               0.999703783    -0.672493213   1.00306897e-05      86.3373142   1.00306897e-05      86.3373143      0.999703532    -0.673698314
0.004                  0.9996296    -0.840627964   1.24673233e-05      87.8024545   1.24673233e-05      87.8024545       0.99962929    -0.842134091
0.0048               0.999555338     -1.00875947    1.4909305e-05      88.4483078    1.4909305e-05      88.4483079      0.999554968     -1.01056661
0.0056               0.999481011     -1.17688849   1.73574276e-05      88.7415512   1.73574276e-05      88.7415512      0.999480581     -1.17899661
0.0064               0.999406624     -1.34501513   1.98114011e-05      88.8621827   1.98114011e-05      88.8621827      0.999406135     -1.34742419
0.0072               0.999332181     -1.51313853   2.22706993e-05      88.8904798   2.22706993e-05      88.8904798      0.999331632     -1.51584845
0.008                0.999257682     -1.68125931   2.47348383e-05      88.8660387   2.47348383e-05      88.8660387      0.999257073     -1.68427003
0.0088               0.999178156     -1.84965938   2.72075103e-05      88.8010057   2.72075103e-05      88.8010057       0.99917748     -1.85297126
0.0096               0.999097614     -2.01811403   2.96850567e-05      88.7159444   2.96850567e-05      88.7159444       0.99909687     -2.02172705
0.0104                 0.9990279     -2.18602317   3.21584763e-05      88.6357992   3.21584763e-05      88.6357992      0.999027104      -2.1899364
0.0112               0.998971552     -2.35361186   3.46309181e-05      88.5645652   3.46309181e-05      88.5645652      0.998970725     -2.35782468
0.012                0.998917666     -2.52145261   3.71104663e-05      88.4870322   3.71104663e-05      88.4870322      0.998916812      -2.5259653
0.0128               0.998862355     -2.68959401   3.95975277e-05      88.4001779   3.95975277e-05      88.4001779      0.998861472     -2.69440689
0.0136               0.998799986     -2.85813388   4.20931549e-05       88.299499   4.20931549e-05       88.299499      0.998799064     -2.86324743
0.0144                0.99873878     -3.02638012    4.4587064e-05       88.196847    4.4587064e-05       88.196847      0.998737821     -3.03179375
0.0152               0.998678646      -3.1945453    4.7082136e-05      88.0926285    4.7082136e-05      88.0926285      0.998677651     -3.20025874
0.016                 0.99861956     -3.36267621   4.95788253e-05      87.9872787   4.95788253e-05      87.9872787      0.998618532     -3.36868923
0.0168               0.998565288     -3.53054569   5.20736937e-05      87.8848327   5.20736937e-05      87.8848327      0.998564234     -3.53685774
0.0176               0.998504849     -3.69876578   5.45752028e-05      87.7750267   5.45752028e-05      87.7750267       0.99850376     -3.70537721
0.0184               0.998445145     -3.86693158   5.70774353e-05      87.6651286   5.70774353e-05      87.6651286      0.998444023     -3.87384212
0.0192               0.998386166     -4.03506844   5.95806377e-05      87.5553623   5.95806377e-05      87.5553623      0.998385012     -4.04227785
0.02                 0.998327911     -4.20317602   6.20847192e-05      87.4459445   6.20847192e-05      87.4459445      0.998326726     -4.21068404
0.0208               0.998273146     -4.37109036   6.45873473e-05      87.3392527   6.45873473e-05      87.3392527      0.998271936     -4.37889649
0.0216               0.998213955     -4.53925477   6.70946965e-05      87.2291773   6.70946965e-05      87.2291773      0.998212714     -4.54735917
0.0224               0.998155311     -4.70738144   6.96027793e-05      87.1199215   6.96027793e-05      87.1199215       0.99815404     -4.71578382
0.0232               0.998097206     -4.87548736    7.2111923e-05       87.011561    7.2111923e-05       87.011561      0.998095906     -4.88418745
0.024                0.998039641     -5.04357059   7.46222088e-05      86.9041623   7.46222088e-05      86.9041623      0.998038313      -5.0525681
0.0248                0.99798465     -5.21150947   7.71320984e-05      86.7991364   7.71320984e-05      86.7991364      0.997983298     -5.22080392
0.0256               0.997926275     -5.37963534   7.96462907e-05       86.692499   7.96462907e-05       86.692499      0.997924895     -5.38922677
0.0264               0.997868325     -5.54772741    8.2161917e-05       86.586887    8.2161917e-05       86.586887      0.997866918     -5.55761548
0.0272               0.997810793     -5.71580183   8.46794019e-05      86.4822633   8.46794019e-05      86.4822633       0.99780936     -5.72598623
0.028                 0.99775368     -5.88385706   8.71989174e-05      86.3785945   8.71989174e-05      86.3785945      0.997752222     -5.89433747
0.0288               0.997698561     -6.05179813   8.97193721e-05       86.276764    8.9719372e-05       86.276764      0.997697082     -6.06257409
0.0296               0.997640747     -6.21988487   9.22444654e-05      86.1739716   9.22444654e-05      86.1739716      0.997639242     -6.23095629
0.0304               0.997583272     -6.38794111   9.47720028e-05      86.0719873   9.47720028e-05      86.0719873      0.997581743     -6.39930762
0.0312               0.997526131     -6.55598143   9.73023923e-05      85.9707328   9.73023923e-05      85.9707328      0.997524579     -6.56764269
0.032                0.997469324     -6.72400453    9.9835803e-05      85.8701437    9.9835803e-05      85.8701437       0.99746775     -6.73596018
0.0328                0.99741412     -6.89193362    0.00010237139      85.7708187    0.00010237139      85.7708187      0.997412526     -6.90418318
0.0336                 0.9973567     -7.05997941   0.000104912121       85.670706   0.000104912121       85.670706      0.997355084     -7.07252271
0.0344               0.997299559      -7.2279972   0.000107456231      85.5710728   0.000107456231      85.5710728      0.997297922     -7.24083383
0.0352               0.997242691     -7.39600002   0.000110004075      85.4718429   0.000110004075      85.4718429      0.997241033      -7.4091296
0.036                0.997186096     -7.56398672   0.000112555792      85.3729567   0.000112555792      85.3729567      0.997184419     -7.57740885
0.0368               0.997130822     -7.73189358   0.000115110691      85.2748526   0.000115110691      85.2748526      0.997129128     -7.74560776
0.0376               0.997073687     -7.89989581   0.000117671198      85.1759822   0.000117671198      85.1759822      0.997071974     -7.91390179
0.0384               0.997016784     -8.06787187   0.000120235852      85.0773002   0.000120235852      85.0773002      0.997015052     -8.08216922
0.0392               0.996960109     -8.23583342   0.000122804955      84.9787454   0.000122804955      84.9787454      0.996958359     -8.25042171
0.04                 0.996903661     -8.40377942    0.00012537862      84.8802721    0.00012537862      84.8802721      0.996901895      -8.4186582
0.0408               0.996848325     -8.57165591   0.000127956267      84.7822194   0.000127956267      84.7822194      0.996846544     -8.58682467
0.0416               0.996791396     -8.73961146   0.000130539916      84.6833885   0.000130539916      84.6833885      0.996789599     -8.75506988
0.0424               0.996734664     -8.90754218   0.000133128334      84.5845254   0.000133128334      84.5845254      0.996732851     -8.92328978
0.0432               0.996678125     -9.07545851   0.000135721785      84.4855836   0.000135721785      84.4855836      0.996676297     -9.09149481
0.044                0.996621779      -9.2433595   0.000138320361      84.3865303   0.000138320361      84.3865303      0.996619937     -9.25968404
0.0448               0.996566383     -9.41119875   0.000140923571      84.2876365   0.000140923571      84.2876365      0.996564529     -9.42781097
0.0456               0.996509605      -9.5791042   0.000143533121       84.187953   0.000143533121       84.187953      0.996507737     -9.59600371
0.0464               0.996452995     -9.74698574   0.000146147961      84.0880781   0.000146147961      84.0880781      0.996451115     -9.76417204
0.0472               0.996396551      -9.9148528   0.000148768324      83.9879766   0.000148768324      83.9879766      0.996394659     -9.93232537
0.048                0.996340273     -10.0827045   0.000151394288      83.8876251   0.000151394288      83.8876251       0.99633837     -10.1004628
0.0488               0.996284819     -10.2505004    0.00015402543      83.7872453    0.00015402543      83.7872453      0.996282906     -10.2685439
0.0496                0.99622815     -10.4183521   0.000156663217      83.6860704   0.000156663217      83.6860704      0.996226227     -10.4366803
0.0504               0.996171628     -10.5861804   0.000159306739      83.5845899   0.000159306739      83.5845899      0.996169695     -10.6047928
0.0512                0.99611525     -10.7539933   0.000161956196      83.4827771   0.000161956196      83.4827771      0.996113308     -10.7728893
0.052                0.996059017     -10.9217913   0.000164611676      83.3806142   0.000164611676      83.3806142      0.996057067     -10.9409704
0.0528               0.996003503     -11.0895402   0.000167272835       83.278284   0.000167272835       83.278284      0.996001547     -11.1090017
0.0536               0.995946912       -11.25734   0.000169940968      83.1751545   0.000169940968      83.1751545      0.995944948     -11.2770835
0.0544               0.995890449     -11.4251199   0.000172615273      83.0716334   0.000172615273      83.0716334      0.995888478     -11.4451447
0.0552               0.995834116     -11.5928737   0.000175295733      82.9677131   0.000175295733      82.9677131      0.995832139     -11.6131793
0.056                0.995777912     -11.7606028   0.000177982439      82.8633793   0.000177982439      82.8633794      0.995775931     -11.7811886
0.0568               0.995722349     -11.9282814   0.000180675157      82.7587818   0.000180675157      82.7587818      0.995720364     -11.9491466
0.0576                0.99566582     -12.0960031   0.000183375092      82.6533884   0.000183375092      82.6533884      0.995663831     -12.1171473
0.0584               0.995609404     -12.2637109   0.000186081631      82.5475365   0.000186081631      82.5475365      0.995607411     -12.2851333
0.0592               0.995553097     -12.4314096   0.000188794914       82.441211   0.000188794914       82.441211      0.995551101     -12.4531098
0.06                 0.995496901     -12.5990955   0.000191514946      82.3344062   0.000191514946      82.3344063      0.995494903     -12.6210727
0.0608               0.995441274     -12.7667372   0.000194241403      82.2272575   0.000194241403      82.2272575      0.995439277     -12.7889908
0.0616               0.995384781     -12.9344103   0.000196975221      82.1193235   0.000196975221      82.1193235      0.995382783     -12.9569397
0.0624               0.995328393     -13.1020561   0.000199715751      82.0108988   0.000199715751      82.0108988      0.995326393     -13.1248606
0.0632               0.995272104      -13.269685   0.000202463204      81.9019657   0.000202463204      81.9019657      0.995270106     -13.2927638
0.064                0.995215917     -13.4372971   0.000205217641      81.7925166   0.000205217641      81.7925166       0.99521392     -13.4606497
0.0648               0.995160241     -13.6048669   0.000207978811      81.6826657   0.000207978811      81.6826657      0.995158247     -13.6284925
0.0656                0.99510378     -13.7724651   0.000210747582      81.5720335   0.000210747582      81.5720335      0.995101787     -13.7963631
0.0664               0.995047411     -13.9400406   0.000213523405      81.4608722   0.000213523405      81.4608722      0.995045421     -13.9642103
0.0672               0.994991132     -14.1075996    0.00021630642        81.34917    0.00021630642        81.34917      0.994989147     -14.1320401
0.068                0.994934945     -14.2751413    0.00021909667      81.2369221    0.00021909667      81.2369221      0.994932964      -14.299852
0.0688               0.994879221     -14.4426425   0.000221893929      81.1242277   0.000221893929      81.1242277      0.994877246     -14.4676227
0.0696               0.994822781     -14.6101675   0.000224698968        81.01076   0.000224698968        81.01076      0.994820812     -14.6354165
0.0704               0.994766425     -14.7776697   0.000227511295       80.896738   0.000227511295       80.896738      0.994764463     -14.8031866
0.0712               0.994710152     -14.9451546   0.000230331037       80.782152   0.000230331037       80.782152      0.994708197     -14.9709388
0.072                0.994653961     -15.1126218   0.000233158229      80.6669986   0.000233158229      80.6669986      0.994652015     -15.1386724
0.0728               0.994598193       -15.28005    0.00023599267      80.5513649    0.00023599267      80.5513649      0.994596256     -15.3063663
0.0736               0.994541769     -15.4474978   0.000238835046      80.4349668   0.000238835046      80.4349668      0.994539841      -15.474079
0.0744               0.994485423     -15.6149225   0.000241684911      80.3179965   0.000241684911      80.3179965      0.994483505     -15.6417679
0.0752               0.994429152     -15.7823294   0.000244542383      80.2004458   0.000244542383      80.2004458      0.994427246     -15.8094381
0.076                0.994372959     -15.9497179   0.000247407491      80.0823125   0.000247407491      80.0823125      0.994371064     -15.9770892
0.0768                0.99431715     -16.1170686   0.000250280049      79.9636737   0.000250280049      79.9636737      0.994315268     -16.1447016
0.0776                0.99426074     -16.2844352   0.000253160673      79.8442806   0.000253160673      79.8442806      0.994258871     -16.3123291
0.0784               0.994204402     -16.4517784   0.000256048958      79.7243032   0.000256048958      79.7243032      0.994202547     -16.4799324
0.0792               0.994148134     -16.6191032   0.000258945009      79.6037346   0.000258945009      79.6037346      0.994146293     -16.6475164
0.08                 0.994091937     -16.7864089   0.000261848851      79.4825736   0.000261848851      79.4825736      0.994090112     -16.8150806
0.0808               0.994036094     -16.9536779   0.000264760312      79.3608888   0.000264760312      79.3608888      0.994034286     -16.9826071
0.0816               0.993979697     -17.1209593   0.000267679945      79.2384613   0.000267679945      79.2384613      0.993977906     -17.1501452
0.0824               0.993923367      -17.288217   0.000270607378      79.1154421   0.000270607378      79.1154421      0.993921593     -17.3176587
0.0832               0.993867103     -17.4554552   0.000273542704       78.991826   0.000273542704       78.991826      0.993865347     -17.4851519
0.084                0.993810905     -17.6226741   0.000276485949       78.867612   0.000276485949       78.867612      0.993809168     -17.6526249
0.0848               0.993755034      -17.789858   0.000279436969      78.7428608   0.000279436969      78.7428608      0.993753318     -17.8200619
0.0856               0.993698649     -17.9570532    0.00028239627      78.6173776    0.00028239627      78.6173776      0.993696954     -17.9875095
0.0864               0.993642328     -18.1242259   0.000285363507      78.4912982   0.000285363507      78.4912982      0.993640654     -18.1549335
0.0872                0.99358607     -18.2913731   0.000288338659      78.3646251   0.000288338659      78.3646251      0.993584418     -18.3223312
0.088                0.993529875     -18.4584956   0.000291321754      78.2373575   0.000291321754      78.2373575      0.993528247     -18.4897032
0.0888               0.993473986     -18.6255809   0.000294312692       78.109548   0.000294312692       78.109548      0.993472382     -18.6570372
0.0896                0.99341762     -18.7926747   0.000297311966      77.9810208   0.000297311966      77.9810208      0.993416041     -18.8243786
0.0904               0.993361313     -18.9597484   0.000300319305      77.8518949   0.000300319305      77.8518949      0.993359759     -18.9916991
0.0912               0.993305063     -19.1268049   0.000303334768       77.722168   0.000303334768       77.722168      0.993303535     -19.1590014
0.092                0.993248872      -19.293842   0.000306358338      77.5918426   0.000306358338      77.5918426      0.993247371     -19.3262833
0.0928               0.993192963     -19.4608443   0.000309389856      77.4609705   0.000309389856      77.4609705      0.993191491     -19.4935294
0.0936               0.993136614     -19.6278495   0.000312429702      77.3293989   0.000312429702      77.3293989      0.993135171     -19.6607775
0.0944               0.993080322     -19.7948274   0.000315477569       77.197239   0.000315477569       77.197239      0.993078908     -19.8279973
0.0952               0.993024087     -19.9617836   0.000318533553      77.0644863   0.000318533553      77.0644863      0.993022704     -19.9951945
0.096                0.992967908     -20.1287183   0.000321597665      76.9311418   0.000321597665      76.9311418      0.992966556     -20.1623691
0.0968               0.992911994     -20.2956182   0.000324669776      76.7972515   0.000324669776      76.7972515      0.992910674     -20.3295079
0.0976               0.992855669     -20.4625199   0.000327750245       76.662677   0.000327750245       76.662677      0.992854382     -20.4966474
0.0984               0.992799399      -20.629396   0.000330838803      76.5275184   0.000330838803      76.5275184      0.992798145     -20.6637605
0.0992               0.992743182     -20.7962504   0.000333935512      76.3917738   0.000333935512      76.3917738      0.992741963     -20.8308506
0.1                   0.99268702     -20.9630824   0.000337040372      76.2554451   0.000337040372      76.2554451      0.992685837     -20.9979175
0.1008               0.992631106     -21.1298799   0.000340153258      76.1185744   0.000340153258      76.1185745       0.99262996     -21.1649487
0.1016               0.992574809     -21.2966769   0.000343274495      75.9810372   0.000343274495      75.9810372        0.9925737     -21.3319785
0.1024               0.992518565      -21.463448   0.000346403832      75.8429248   0.000346403832      75.8429248      0.992517494     -21.4989812
0.1032               0.992462373     -21.6301965   0.000349541324       75.704236   0.000349541324       75.704236      0.992461341     -21.6659603
0.104                0.992406234     -21.7969221   0.000352686965      75.5649731   0.000352686965      75.5649731      0.992405242     -21.8329154
0.1048               0.992350329     -21.9636132   0.000355840639      75.4251749   0.000355840639      75.4251749      0.992349377      -21.999835
0.1056               0.992294066     -22.1303018   0.000359002638      75.2847287   0.000359002638      75.2847288      0.992293155      -22.166751
0.1064               0.992237854     -22.2969639   0.000362172726      75.1437186   0.000362172726      75.1437186      0.992236986     -22.3336393
0.1072               0.992181693     -22.4636028   0.000365350952      75.0021437   0.000365350952      75.0021437      0.992180868     -22.5005034
0.108                0.992125583     -22.6302181   0.000368537308      74.8600066   0.000368537308      74.8600066      0.992124803     -22.6673427
0.1088               0.992069695      -22.796799   0.000371731681      74.7173434   0.000371731681      74.7173434       0.99206896     -22.8341465
0.1096               0.992013471     -22.9633754   0.000374934333      74.5740517   0.000374934333      74.5740518      0.992012782     -23.0009447
0.1104               0.991957298     -23.1299248   0.000378145047      74.4302091   0.000378145047      74.4302091      0.991956656     -23.1677148
0.1112               0.991901175     -23.2964503   0.000381363862      74.2858151   0.000381363862      74.2858151      0.991900581     -23.3344599
0.112                0.991845102     -23.4629516   0.000384590767      74.1408726   0.000384590767      74.1408726      0.991844556     -23.5011795
0.1128               0.991789239     -23.6294183   0.000387825656      73.9954153   0.000387825656      73.9954153      0.991788743     -23.6678634
0.1136               0.991733061     -23.7958788   0.000391068763        73.84935   0.000391068763        73.84935      0.991732616     -23.8345401
0.1144               0.991676934     -23.9623118   0.000394319884      73.7027482   0.000394319884      73.7027482       0.99167654      -24.001188
0.1152               0.991620855     -24.1287202   0.000397579054      73.5556099   0.000397579054        73.55561      0.991620514       -24.16781
0.116                0.991564827     -24.2951036   0.000400846258      73.4079386   0.000400846258      73.4079386      0.991564539      -24.334406
0.1168               0.991508997     -24.4614524   0.000404121395      73.2597652   0.000404121395      73.2597653      0.991508763     -24.5009662
0.1176               0.991452873     -24.6277934   0.000407404674      73.1110051   0.000407404674      73.1110051      0.991452695     -24.6675173
0.1184               0.991396798     -24.7941062   0.000410695903      72.9617245   0.000410695903      72.9617245      0.991396676     -24.8340391
0.1192               0.991340772     -24.9603935    0.00041399511      72.8119239    0.00041399511      72.8119239      0.991340707     -25.0005342
0.12                 0.991284795     -25.1266554   0.000417302284      72.6616065   0.000417302284      72.6616066      0.991284788     -25.1670026
0.1208               0.991229008     -25.2928832   0.000420617332      72.5108011   0.000420617332      72.5108011      0.991229059     -25.3334357
0.1216               0.991172944     -25.4591026   0.000423940452      72.3594295   0.000423940452      72.3594295      0.991173055     -25.4998592
0.1224               0.991116929     -25.6252943   0.000427271459      72.2075535   0.000427271459      72.2075536      0.991117101     -25.6662537
0.1232               0.991060963     -25.7914566   0.000430610314      72.0551781   0.000430610314      72.0551782      0.991061197     -25.8326177
0.124                0.991005046       -25.95759   0.000433957006      71.9023065   0.000433957006      71.9023065      0.991005343     -25.9989515
0.1248               0.990949312     -26.1236876    0.00043731147       71.748964    0.00043731147       71.748964      0.990949672     -26.1652482
0.1256               0.990893318     -26.2897752   0.000440673902      71.5950778   0.000440673902      71.5950778      0.990893743     -26.3315335
0.1264               0.990837371     -26.4558362   0.000444044159      71.4407035   0.000444044159      71.4407035      0.990837862     -26.4977911
0.1272               0.990781473     -26.6218724    0.00044742225       71.285843    0.00044742225       71.285843       0.99078203     -26.6640226
0.128                0.990725622     -26.7878826   0.000450808139      71.1305011   0.000450808139      71.1305011      0.990726247     -26.8302268
0.1288               0.990669946     -26.9538579   0.000454201723      70.9747042   0.000454201723      70.9747042       0.99067064     -26.9963948
0.1296               0.990614026     -27.1198199   0.000457603139      70.8183879   0.000457603139      70.8183879      0.990614789     -27.1625482
0.1304               0.990558155     -27.2857508   0.000461012218      70.6616064   0.000461012218      70.6616064      0.990558989     -27.3286693
0.1312               0.990502333     -27.4516541   0.000464428993        70.50436   0.000464428993        70.50436      0.990503239     -27.4947614
0.132                0.990446559     -27.6175299   0.000467853446      70.3466522   0.000467853446      70.3466522      0.990447537     -27.6608246
0.1328               0.990390953     -27.7833703    0.00047128549      70.1885074    0.00047128549      70.1885074      0.990392004     -27.8268512
0.1336               0.990335117     -27.9491968   0.000474725259      70.0298654   0.000474725259      70.0298654      0.990336243     -27.9928625
0.1344               0.990279331     -28.1149929     0.0004781726      69.8707763     0.0004781726      69.8707763      0.990280532     -28.1588421
0.1352               0.990223593     -28.2807611    0.00048162753      69.7112417    0.00048162753      69.7112417       0.99022487     -28.3247924
0.136                0.990167903      -28.446501   0.000485090024      69.5512656   0.000485090024      69.5512656      0.990169258     -28.4907131
0.1368               0.990112374     -28.6122054   0.000488559999      69.3908708   0.000488559998      69.3908708      0.990113808     -28.6565969
0.1376               0.990056631     -28.7778944   0.000492037571       69.230002   0.000492037571       69.230002      0.990058145      -28.822464
0.1384               0.990000937     -28.9435526     0.0004955226      69.0687061     0.0004955226      69.0687062      0.990002531     -28.9882988
0.1392               0.989945291     -29.1091821   0.000499015098      68.9069849   0.000499015098      68.9069849      0.989946966     -29.1541037
0.14                 0.989889694     -29.2747827    0.00050251504      68.7448423    0.00050251504      68.7448423      0.989891452     -29.3198782
0.1408               0.989834253     -29.4403475   0.000506022345         68.5823   0.000506022345      68.5823001      0.989836094     -29.4856156
0.1416               0.989778609     -29.6058957   0.000509537117      68.4193069   0.000509537117      68.4193069      0.989780535      -29.651335
0.1424               0.989723015     -29.7714125   0.000513059223      68.2559071   0.000513059223      68.2559071      0.989725027     -29.8170215
0.1432                0.98966747     -29.9368999   0.000516588672      68.0921023   0.000516588672      68.0921023      0.989669569     -29.9826772
0.144                0.989611975     -30.1023579    0.00052012544      67.9278968    0.00052012544      67.9278968      0.989614161     -30.1483021
0.1448               0.989556629     -30.2677797   0.000523669448      67.7633109   0.000523669448      67.7633109      0.989558904     -30.3138894
0.1456               0.989501094     -30.4331837   0.000527220789      67.5982974   0.000527220789      67.5982974      0.989503458     -30.4794575
0.1464               0.989445609     -30.5985556   0.000530779336      67.4328977   0.000530779336      67.4328977      0.989448064     -30.6449921
0.1472               0.989390173     -30.7638976   0.000534345098      67.2671137   0.000534345098      67.2671137       0.98939272     -30.8104953
0.148                0.989334787     -30.9292095   0.000537918049      67.1009498   0.000537918049      67.1009498      0.989337426      -30.975967
0.1488               0.989279547     -31.0944849   0.000541498115       66.934425   0.000541498115       66.934425       0.98928228     -31.1414007
0.1496               0.989224128     -31.2597413   0.000545085375      66.7674957   0.000545085375      66.7674957      0.989226956     -31.3068139
0.1504                0.98916876     -31.4249651   0.000548679713       66.600201   0.000548679713       66.600201      0.989171684     -31.4721932
0.1512               0.989113442     -31.5901584   0.000552281134      66.4325427   0.000552281134      66.4325427      0.989116462     -31.6375403
0.152                0.989058174     -31.7553209   0.000555889612      66.2645253   0.000555889612      66.2645253      0.989061292     -31.8028553
0.1528               0.989003047     -31.9204466   0.000559505077      66.0961668   0.000559505077      66.0961668      0.989006265     -31.9681319
0.1536               0.988947753     -32.0855521   0.000563127598      65.9274267   0.000563127598      65.9274267      0.988951071     -32.1333869
0.1544                0.98889251     -32.2506245   0.000566757064      65.7583419   0.000566757064      65.7583419      0.988895929     -32.2986073
0.1552               0.988837318     -32.4156657   0.000570393482      65.5889143   0.000570393482      65.5889143      0.988840839      -32.463795
0.156                0.988782176     -32.5806756   0.000574036825      65.4191483   0.000574036825      65.4191483      0.988785801     -32.6289498
0.1568               0.988727173     -32.7456482   0.000577687026      65.2490612   0.000577687026      65.2490612      0.988730902      -32.794066