! TOUCHSTONE file generated by CST MICROWAVE STUDIO
! Date and time: Thu Oct 30 19:22:03 2025
! Project name: ResonadorAnillo_PadsGndDesplazados_AnchoPistaPin.cst
! Parameters = {Eeff=2.76858; Er=3.55; H=1.56; L1=45.0747; L2=45.0747; L_Ang=9; L_AngTrans=1; L_Base=6.5; L_PadGND=4; L_Pin=4; L_conn=4; L_sma=8.5; Landa=180.299; R_Diel=2.08; R_Pin=0.45; R_sma=2.58; T=0.035; W=3.3; W_Base=1.5; W_PadGND=1.8; W_PistaPin=2.4; W_conn=0.9; Wa=3.3; X=70; Y=122.745; c=3e+11; d_Borde=0.27; f=1e+09; r=28.6954; s=0.3}
! Header version: 2024
! Port assignment regex: !\s*Touchstone port\s*([0-9]+)\s*=\s*(CST MWS port|CST DES external port|CST DES block port)\s*(.+)\s* \(\"(.*)\"\)(\s*mode\s*([0-9]+))?.*
! Touchstone port assignment:
! Touchstone port 1 = CST MWS port 1 ("")
! Touchstone port 2 = CST MWS port 2 ("")
# GHz S MA R 62.45
0                     1.00000999               0   4.76553285e-09             180    4.7654246e-09             180       1.00000984               0
0.0008               0.999970827    -0.158214714   7.60948141e-07     -161.731876   7.60948129e-07     -161.731876      0.999970896    -0.157780772
0.0016               0.999936136    -0.316550012   3.07349536e-07      14.9454752   3.07349544e-07      14.9454757      0.999936318    -0.315677256
0.0024               0.999902756    -0.474940464   1.33477519e-06      66.6878649    1.3347752e-06      66.6878648      0.999903011    -0.473629379
0.0032               0.999869917    -0.633311129   2.12862889e-06      78.6857528   2.12862889e-06      78.6857527      0.999870245    -0.631562589
0.004                0.999837153    -0.791668177   2.79649438e-06       83.862831   2.79649438e-06      83.8628309      0.999837558    -0.789482407
0.0048               0.999804368    -0.950017784      3.41008e-06      86.4259134      3.41008e-06      86.4259134      0.999804852    -0.947394825
0.0056               0.999771539     -1.10836274   3.99915902e-06      87.7864506   3.99915902e-06      87.7864506      0.999772102     -1.10530259
0.0064               0.999738657     -1.26670418   4.57693818e-06      88.5340471   4.57693818e-06      88.5340471      0.999739302      -1.2632068
0.0072               0.999705721     -1.42504184   5.14977934e-06       88.947053   5.14977934e-06       88.947053      0.999706448      -1.4211072
0.008                 0.99967273     -1.58337663   5.72098306e-06      89.1682473   5.72098306e-06      89.1682473       0.99967354      -1.5790047
0.0088               0.999635062     -1.74197776   6.29332644e-06      89.2665648   6.29332644e-06      89.2665648      0.999635967     -1.73716783
0.0096               0.999596445     -1.90063092   6.86711599e-06      89.2951064   6.86711599e-06      89.2951064      0.999597447      -1.8953828
0.0104               0.999567898     -2.05876272   7.44100638e-06      89.2980119   7.44100638e-06      89.2980119      0.999568974     -2.05307765
0.0112               0.999551864     -2.21658326   8.01623971e-06       89.290858   8.01623971e-06       89.290858      0.999552983     -2.21046194
0.012                  0.9995382     -2.37463945   8.59508054e-06      89.2654601   8.59508053e-06      89.2654602      0.999539356     -2.36808122
0.0128               0.999523256     -2.53297986   9.17794088e-06      89.2229802   9.17794088e-06      89.2229802      0.999524453     -2.52598394
0.0136               0.999501747     -2.69170076   9.76534091e-06      89.1613095   9.76534091e-06      89.1613095      0.999503001     -2.68426613
0.0144               0.999481263     -2.85014466   1.03551291e-05      89.0934861   1.03551291e-05      89.0934861      0.999482573     -2.84227192
0.0152               0.999461766     -3.00851174   1.09481867e-05      89.0203602   1.09481867e-05      89.0203603      0.999463129     -3.00020101
0.016                0.999443244      -3.1668461   1.15448064e-05       88.942257   1.15448064e-05       88.942257      0.999444658     -3.15809736
0.0168               0.999429194     -3.32493118   1.21443387e-05      88.8627068   1.21443387e-05      88.8627068       0.99943065     -3.31574497
0.0176               0.999409408     -3.48335115   1.27488828e-05      88.7707093   1.27488828e-05      88.7707093      0.999410918     -3.47372653
0.0184               0.999390298     -3.64171984   1.33571192e-05      88.6725667   1.33571192e-05      88.6725667      0.999391863     -3.63165683
0.0192               0.999371861     -3.80006116   1.39691051e-05      88.5674392   1.39691051e-05      88.5674392      0.999373479     -3.78955973
0.02                 0.999354095     -3.95837481   1.45847385e-05      88.4544184   1.45847385e-05      88.4544184      0.999355765     -3.94743491
0.0208               0.999339575     -4.11650447   1.52032884e-05      88.3347482   1.52032884e-05      88.3347482      0.999341288     -4.10512645
0.0216               0.999320935     -4.27487327    1.5825923e-05      88.2012667    1.5825923e-05      88.2012667      0.999322704     -4.26305641
0.0224               0.999302802     -4.43320671   1.64512728e-05      88.0572145   1.64512728e-05      88.0572145      0.999304625     -4.42095098
0.0232               0.999285171     -4.59152085     1.707884e-05      87.9019084     1.707884e-05      87.9019084      0.999287048     -4.57882617
0.024                0.999268044     -4.74981394   1.77079098e-05      87.7349225   1.77079098e-05      87.7349226      0.999269974     -4.73668022
0.0248               0.999253311     -4.90797003   1.83372171e-05       87.557519   1.83372171e-05       87.557519      0.999255288      -4.8943975
0.0256                0.99923543     -5.06630551   1.89668351e-05       87.366012   1.89668351e-05       87.366012      0.999237464     -5.05229357
0.0264               0.999217944     -5.22460983   1.95948905e-05      87.1638154   1.95948905e-05      87.1638154      0.999220033     -5.21015843
0.0272               0.999200847      -5.3828983   2.02201993e-05      86.9522338   2.02201993e-05      86.9522338      0.999202992     -5.36800735
0.028                0.999184141      -5.5411696   2.08414729e-05      86.7331534   2.08414729e-05      86.7331534      0.999186341     -5.52583901
0.0288               0.999169291     -5.69933329   2.14571434e-05      86.5099347   2.14571434e-05      86.5099347      0.999171542     -5.68356317
0.0296               0.999151928     -5.85763749   2.20669053e-05      86.2827638   2.20669053e-05      86.2827638      0.999154237     -5.84142736
0.0304               0.999134875     -6.01591422   2.26692213e-05      86.0567566   2.26692213e-05      86.0567566      0.999137243     -5.99926402
0.0312                0.99911813     -6.17417732   2.32634501e-05      85.8354006   2.32634501e-05      85.8354006      0.999120555     -6.15708692
0.032                0.999101689     -6.33242561   2.38492228e-05      85.6222103   2.38492228e-05      85.6222103      0.999104172      -6.3148949
0.0328                0.99908673      -6.4905859   2.44262915e-05      85.4211646   2.44262915e-05      85.4211646      0.999089267     -6.47261496
0.0336               0.999069698     -6.64885939    2.4995697e-05      85.2332091   2.49956969e-05      85.2332092      0.999072294     -6.63044777
0.0344                0.99905291       -6.807108   2.55576795e-05      85.0620386   2.55576795e-05      85.0620386      0.999055566     -6.78825562
0.0352               0.999036363     -6.96534401   2.61132759e-05      84.9093458   2.61132759e-05      84.9093458      0.999039078     -6.94605072
0.036                0.999020056     -7.12356629   2.66636824e-05      84.7761264   2.66636824e-05      84.7761264      0.999022829     -7.10383195
0.0368               0.999004962     -7.28171406   2.72100245e-05      84.6631724   2.72100245e-05      84.6631724       0.99900779     -7.26153867
0.0376               0.998988116     -7.43995454   2.77542192e-05      84.5686632   2.77542192e-05      84.5686632      0.998991005      -7.4193377
0.0384               0.998971467     -7.59817176   2.82972264e-05      84.4927357   2.82972264e-05      84.4927357      0.998974415     -7.57711333
0.0392               0.998955013     -7.75637664   2.88403451e-05       84.434103   2.88403451e-05       84.434103       0.99895802     -7.73487645
0.04                 0.998938754     -7.91456818   2.93847051e-05      84.3912042    2.9384705e-05      84.3912042       0.99894182     -7.89262605
0.0408               0.998923511     -8.07269493   2.99311257e-05      84.3626889   2.99311257e-05      84.3626889      0.998926634      -8.0503108
0.0416               0.998906766     -8.23089871    3.0480887e-05      84.3456062    3.0480887e-05      84.3456062       0.99890995     -8.20807219
0.0424               0.998890186     -8.38908039    3.1034344e-05      84.3389516    3.1034344e-05      84.3389516      0.998893429      -8.3658113
0.0432               0.998873768     -8.54724983    3.1592063e-05       84.341004    3.1592063e-05       84.341004      0.998877072     -8.52353797
0.044                0.998857514     -8.70540613   3.21544421e-05      84.3501691   3.21544421e-05      84.3501691      0.998860878      -8.6812513
0.0448               0.998842129     -8.86350508   3.27216311e-05      84.3652933   3.27216311e-05      84.3652933       0.99884555     -8.83890718
0.0456               0.998825438     -9.02166885   3.32942061e-05      84.3841596   3.32942061e-05      84.3841596       0.99882892     -8.99662747
0.0464               0.998808886     -9.17981149   3.38720163e-05      84.4062438   3.38720163e-05      84.4062438       0.99881243     -9.15432645
0.0472               0.998792473     -9.33794192   3.44551536e-05      84.4305403   3.44551536e-05      84.4305403      0.998796078     -9.31201298
0.048                  0.9987762     -9.49605934   3.50436275e-05      84.4561935   3.50436275e-05      84.4561935      0.998779866     -9.46968628
0.0488               0.998760677     -9.65412524    3.5637295e-05      84.4827183    3.5637295e-05      84.4827183      0.998764403     -9.62730792
0.0496               0.998744006     -9.81224619   3.62364325e-05      84.5087599   3.62364325e-05        84.50876      0.998747794     -9.78498422
0.0504               0.998727454     -9.97034665   3.68407394e-05      84.5343138   3.68407394e-05      84.5343138      0.998731305      -9.9426398
0.0512               0.998711021     -10.1284342   3.74501656e-05      84.5589494   3.74501656e-05      84.5589494      0.998714935     -10.1002823
0.052                0.998694707     -10.2865094   3.80646273e-05      84.5823199   3.80646273e-05      84.5823199      0.998698684     -10.2579121
0.0528               0.998679048     -10.4445396   3.86839372e-05      84.6043422   3.86839372e-05      84.6043422      0.998683087     -10.4154967
0.0536               0.998662368     -10.6026203   3.93082945e-05      84.6241771   3.93082945e-05      84.6241771      0.998666471     -10.5731315
0.0544                0.99864579      -10.760684   3.99374057e-05      84.6420651   3.99374057e-05      84.6420651      0.998649958      -10.730749
0.0552               0.998629315      -10.918725   4.05711665e-05      84.6578717   4.05711665e-05      84.6578717      0.998633547     -10.8883436
0.056                0.998612942     -11.0767445   4.12095018e-05      84.6714879   4.12095018e-05      84.6714879      0.998617239     -11.0459164
0.0568               0.998597148     -11.2347179   4.18522653e-05      84.6829941   4.18522653e-05      84.6829941      0.998601509      -11.203443
0.0576               0.998580437     -11.3927346   4.24996554e-05      84.6918142   4.24996553e-05      84.6918142      0.998584864     -11.3610124
0.0584               0.998563812     -11.5507401   4.31514474e-05      84.6982545   4.31514474e-05      84.6982545      0.998568306     -11.5185704
0.0592               0.998547275     -11.7087391   4.38075991e-05      84.7022851   4.38075991e-05      84.7022851      0.998551835     -11.6761216
0.06                 0.998530824      -11.866728   4.44680426e-05      84.7038964   4.44680426e-05      84.7038964      0.998535452     -11.8336622
0.0608               0.998514885      -12.024677   4.51326374e-05      84.7032283   4.51326374e-05      84.7032283      0.998519579     -11.9911629
0.0616               0.998498119     -12.1826583   4.58015471e-05      84.6998544   4.58015471e-05      84.6998544      0.998502882     -12.1486954
0.0624               0.998481429      -12.340616   4.64745631e-05      84.6940863   4.64745631e-05      84.6940864       0.99848626     -12.3062041
0.0632               0.998464814     -12.4985598   4.71516848e-05      84.6859298   4.71516848e-05      84.6859298      0.998469714     -12.4636986
0.064                0.998448274       -12.65649   4.78328809e-05      84.6754035   4.78328809e-05      84.6754035      0.998453243     -12.6211792
0.0648               0.998432191     -12.8143823   4.85180492e-05      84.6626498   4.85180492e-05      84.6626498      0.998437229     -12.7786216
0.0656               0.998415355     -12.9723043   4.92073586e-05      84.6473218   4.92073586e-05      84.6473218      0.998420464     -12.9360933
0.0664               0.998398584     -13.1302071   4.99006425e-05      84.6297017   4.99006425e-05      84.6297017      0.998403764     -13.0935455
0.0672               0.998381878     -13.2880966   5.05979017e-05      84.6098107   5.05979017e-05      84.6098107      0.998387128     -13.2509841
0.068                0.998365236     -13.4459721   5.12991162e-05      84.5876766   5.12991162e-05      84.5876766      0.998370558     -13.4084084
0.0688               0.998349006     -13.6038116   5.20042049e-05      84.5634307   5.20042049e-05      84.5634308      0.998354398     -13.5657964
0.0696               0.998332085     -13.7616765   5.27133283e-05      84.5367805   5.27133283e-05      84.5367805      0.998337551     -13.7232093
0.0704               0.998315221     -13.9195222   5.34263449e-05      84.5079759   5.34263449e-05      84.5079759       0.99832076     -13.8806028
0.0712               0.998298413     -14.0773542   5.41432642e-05      84.4770391   5.41432642e-05      84.4770392      0.998304025     -14.0379822
0.072                 0.99828166     -14.2351718   5.48640753e-05      84.4439978   5.48640753e-05      84.4439978      0.998287346     -14.1953469
0.0728               0.998265279      -14.392955   5.55887111e-05      84.4089687   5.55887111e-05      84.4089687      0.998271038     -14.3526769
0.0736               0.998248263     -14.5507598   5.63173222e-05      84.3716986   5.63173222e-05      84.3716986      0.998254096      -14.510028
0.0744               0.998231295     -14.7085453   5.70497855e-05      84.3324074   5.70497855e-05      84.3324074      0.998237204     -14.6673595
0.0752               0.998214376     -14.8663166   5.77861149e-05      84.2911151   5.77861149e-05      84.2911151      0.998220361     -14.8246765
0.076                0.998197505     -15.0240732   5.85263046e-05      84.2478465   5.85263046e-05      84.2478465      0.998203565     -14.9819783
0.0768                0.99818097     -15.1817966   5.92702973e-05      84.2027044   5.92702973e-05      84.2027044      0.998187106     -15.1392467
0.0776               0.998163849     -15.3395381   6.00182325e-05      84.1554666   6.00182325e-05      84.1554667      0.998170063     -15.2965328
0.0784               0.998146771     -15.4972603   6.07700009e-05      84.1063268   6.07700009e-05      84.1063268      0.998153061     -15.4537991
0.0792               0.998129733     -15.6549678   6.15256182e-05      84.0553021   6.15256182e-05      84.0553022      0.998136102     -15.6110504
0.08                 0.998112738     -15.8126602   6.22850812e-05      84.0024144   6.22850812e-05      84.0024144      0.998119185     -15.7682862
0.0808               0.998096049     -15.9703204   6.30483393e-05       83.947754   6.30483393e-05       83.947754      0.998102574     -15.9254895
0.0816               0.998078816     -16.1279956   6.38155206e-05      83.8911247   6.38155206e-05      83.8911247       0.99808542     -16.0827074
0.0824               0.998061619     -16.2856513   6.45865262e-05      83.8326975   6.45865262e-05      83.8326975      0.998068303     -16.2399053
0.0832               0.998044459     -16.4432915   6.53613712e-05      83.7724876   6.53613712e-05      83.7724877      0.998051223     -16.3970873
0.084                0.998027334     -16.6009163   6.61400553e-05      83.7105136   6.61400552e-05      83.7105136      0.998034179     -16.5542536
0.0848                0.99801049     -16.7585109   6.69225355e-05      83.6468547   6.69225355e-05      83.6468548      0.998017414     -16.7113892
0.0856               0.997993139     -16.9161195    6.7708932e-05      83.5813357    6.7708932e-05      83.5813357      0.998000145     -16.8685385
0.0864               0.997975819     -17.0737098   6.84991531e-05       83.514109   6.84991531e-05      83.5141091      0.997982907      -17.025669
0.0872               0.997958531     -17.2312791   6.92931876e-05      83.4451945   6.92931876e-05      83.4451945      0.997965701     -17.1827781
0.088                0.997941274     -17.3888281   7.00910368e-05      83.3746081   7.00910368e-05      83.3746081      0.997948528     -17.3398665
0.0888               0.997924275     -17.5463449   7.08926694e-05      83.3024185   7.08926694e-05      83.3024185      0.997931611     -17.4969224
0.0896               0.997906802     -17.7038731   7.16982035e-05      83.2284666   7.16982035e-05      83.2284666      0.997914222     -17.6539892
0.0904               0.997889356     -17.8613855   7.25075659e-05      83.1528863   7.25075659e-05      83.1528863       0.99789686     -17.8110397
0.0912               0.997871937     -18.0188848   7.33207657e-05      83.0756903   7.33207657e-05      83.0756903      0.997879526     -17.9680767
0.092                0.997854544      -18.176369   7.41377935e-05      82.9968956   7.41377935e-05      82.9968956      0.997862218     -18.1250981
0.0928               0.997837388     -18.3338232   7.49586044e-05      82.9165678   7.49586043e-05      82.9165678      0.997845146     -18.2820892
0.0936               0.997819788     -18.4912838   7.57832895e-05      82.8345683   7.57832894e-05      82.8345683      0.997827633     -18.4390862
0.0944               0.997802213     -18.6487219   7.66117664e-05      82.7510214   7.66117664e-05      82.7510214      0.997810144     -18.5960602
0.0952               0.997784661     -18.8061428   7.74440536e-05      82.6659357   7.74440536e-05      82.6659357      0.997792679     -18.7530166
0.096                0.997767132     -18.9635467   7.82801488e-05       82.579325   7.82801487e-05      82.5793251      0.997775237     -18.9099555
0.0968               0.997749821     -19.1209208   7.91200135e-05      82.4912477   7.91200135e-05      82.4912477      0.997758013     -19.0668642
0.0976               0.997732094     -19.2783002   7.99637352e-05       82.401578   7.99637352e-05       82.401578      0.997740375     -19.2237778
0.0984               0.997714387      -19.435659   8.08112398e-05      82.3104276   8.08112398e-05      82.3104276      0.997722757     -19.3806702
0.0992                 0.9976967     -19.5930005   8.16625373e-05      82.2178062   8.16625373e-05      82.2178062      0.997705159     -19.5375449
0.1                  0.997679033     -19.7503244   8.25176223e-05      82.1237272   8.25176223e-05      82.1237272      0.997687582     -19.6944015
0.1008               0.997661568     -19.9076189   8.33764578e-05      82.0282436   8.33764578e-05      82.0282436      0.997670205     -19.8512283
0.1016               0.997643711     -20.0649168   8.42391223e-05      81.9312422   8.42391223e-05      81.9312422      0.997652439     -20.0080579
0.1024               0.997625872     -20.2221936   8.51055458e-05      81.8328248   8.51055458e-05      81.8328248      0.997634691      -20.164866
0.1032                0.99760805     -20.3794526   8.59757363e-05      81.7330006   8.59757363e-05      81.7330006       0.99761696     -20.3216558
0.104                0.997590245     -20.5366935    8.6849687e-05      81.6317822    8.6849687e-05      81.6317822      0.997599247     -20.4784271
0.1048               0.997572626     -20.6939052   8.77273619e-05      81.5292185   8.77273618e-05      81.5292185       0.99758172     -20.6351687
0.1056               0.997554639     -20.8511185   8.86088314e-05      81.4252069   8.86088314e-05      81.4252069      0.997563826     -20.7919113
0.1064               0.997536667     -21.0083103   8.94940289e-05      81.3198408   8.94940289e-05      81.3198408      0.997545947     -20.9486319
0.1072               0.997518709     -21.1654838   9.03829604e-05       81.213129   9.03829604e-05       81.213129      0.997528083     -21.1053338
0.108                0.997500766     -21.3226386   9.12756177e-05      81.1050836   9.12756177e-05      81.1050836      0.997510234     -21.2620165
0.1088               0.997482996     -21.4797645   9.21719657e-05      80.9957495   9.21719656e-05      80.9957495      0.997492558     -21.4186697
0.1096               0.997464878     -21.6368901   9.30720672e-05       80.885034   9.30720672e-05      80.8850341      0.997474535     -21.5753221
0.1104               0.997446773     -21.7939939   9.39758586e-05       80.773023   9.39758586e-05       80.773023      0.997456525     -21.7319523
0.1112                0.99742868     -21.9510788   9.48833439e-05      80.6597248   9.48833439e-05      80.6597248      0.997438528      -21.888563
0.112                  0.9974106     -22.1081446   9.57945137e-05      80.5451512   9.57945137e-05      80.5451512      0.997420544      -22.045154
0.1128               0.997392681     -22.2651815   9.67093333e-05      80.4293439   9.67093333e-05      80.4293439      0.997402721     -22.2017157
0.1136               0.997374432     -22.4222165   9.76278588e-05      80.3122184   9.76278588e-05      80.3122185       0.99738457     -22.3582749
0.1144               0.997356195     -22.5792293   9.85500291e-05      80.1938543   9.85500291e-05      80.1938543       0.99736643     -22.5148115
0.1152               0.997337967     -22.7362227   9.94758464e-05      80.0742596   9.94758464e-05      80.0742597        0.9973483      -22.671328
0.116                0.997319751     -22.8931964     0.0001004053      79.9534457     0.0001004053      79.9534458      0.997330182     -22.8278243
0.1168               0.997301685     -23.0501412   0.000101338355      79.8314514   0.000101338355      79.8314514      0.997312215     -22.9842913
0.1176               0.997283306     -23.2070827   0.000102275063      79.7081999   0.000102275063      79.7081999      0.997293936     -23.1407543
0.1184               0.997264937     -23.3640015   0.000103215363      79.5837646   0.000103215363      79.5837647      0.997275666     -23.2971941
0.1192               0.997246577     -23.5209002   0.000104159256      79.4581539   0.000104159256      79.4581539      0.997257406     -23.4536132
0.12                 0.997228225     -23.6777788   0.000105106731      79.3313783   0.000105106731      79.3313783      0.997239155     -23.6100117
0.1208               0.997210015     -23.8346291   0.000106057757      79.2034735   0.000106057757      79.2034735      0.997221045     -23.7663814
0.1216               0.997191507     -23.9914757   0.000107012378      79.0743691   0.000107012378      79.0743691      0.997202639     -23.9227468
0.1224               0.997173008     -24.1483001   0.000107970538      78.9441336   0.000107970538      78.9441336      0.997184241     -24.0790894
0.1232               0.997154516     -24.3051008   0.000108932219      78.8127787   0.000108932219      78.8127787      0.997165852     -24.2354078
0.124                0.997136032     -24.4618782   0.000109897409      78.6803146   0.000109897409      78.6803146      0.997147471     -24.3917024
0.1248                0.99711768     -24.6186259   0.000110866083      78.5467735   0.000110866083      78.5467735      0.997129221     -24.5479666
0.1256               0.997099046     -24.7753683   0.000111838286      78.4120894   0.000111838286      78.4120894      0.997110691     -24.7042249
0.1264               0.997080418     -24.9320898   0.000112813971      78.2763245   0.000112813971      78.2763245      0.997092167     -24.8604618
0.1272               0.997061796      -25.088792   0.000113793132      78.1394871   0.000113793132      78.1394871       0.99707365     -25.0166788
0.128                0.997043181     -25.2454738    0.00011477575      78.0015886    0.00011477575      78.0015886      0.997055139     -25.1728748
0.1288               0.997024689     -25.4021266   0.000115761789      77.8626615   0.000115761789      77.8626615      0.997036753     -25.3290413
0.1296               0.997005929     -25.5587714    0.00011675128      77.7226478    0.00011675128      77.7226478      0.997018098     -25.4851991
0.1304               0.996987174      -25.715391   0.000117744167      77.5816075   0.000117744167      77.5816075       0.99699945     -25.6413311
0.1312               0.996968425     -25.8719887    0.00011874045      77.4395473    0.00011874045      77.4395473      0.996980808     -25.7974406
0.132                0.996949681     -26.0285646   0.000119740115      77.2964769   0.000119740115      77.2964769      0.996962171     -25.9535278
0.1328               0.996931054     -26.1851114   0.000120743129      77.1524261   0.000120743129      77.1524261       0.99694365     -26.1095852
0.1336               0.996912171     -26.3416494   0.000121749521      77.0073411   0.000121749521      77.0073411      0.996924875     -26.2656333
0.1344               0.996893292     -26.4981631   0.000122759239      76.8612776   0.000122759239      76.8612776      0.996906105     -26.4216565
0.1352               0.996874418     -26.6546547   0.000123772279      76.7142428   0.000123772279      76.7142428      0.996887339     -26.5776568
0.136                0.996855548      -26.811124   0.000124788624      76.5662465   0.000124788624      76.5662465      0.996868579     -26.7336343
0.1368               0.996836788     -26.9675639   0.000125808242      76.4173169   0.000125808242      76.4173169      0.996849928     -26.8895819
0.1376               0.996817784     -27.1239939   0.000126831156      76.2674044   0.000126831156      76.2674044      0.996831034     -27.0455189
0.1384               0.996798784     -27.2803992   0.000127857319      76.1165611   0.000127857318      76.1165611      0.996812144     -27.2014304
0.1392               0.996779787     -27.4367818   0.000128886721      75.9647943   0.000128886721      75.9647943      0.996793258     -27.3573187
0.14                 0.996760794     -27.5931415   0.000129919348      75.8121134   0.000129919348      75.8121134      0.996774376     -27.5131836
0.1408               0.996741905     -27.7494718   0.000130955167       75.658545   0.000130955167       75.658545      0.996755598     -27.6690183
0.1416               0.996722782      -27.905791   0.000131994197      75.5040434   0.000131994197      75.5040434      0.996736587     -27.8248413
0.1424               0.996703663      -28.062085   0.000133036392      75.3486575   0.000133036392      75.3486576       0.99671758     -27.9806385
0.1432               0.996684546     -28.2183558   0.000134081743      75.1923945   0.000134081743      75.1923945      0.996698577     -28.1364118
0.144                0.996665433     -28.3746032   0.000135130233      75.0352634   0.000135130233      75.0352634      0.996679577     -28.2921612
0.1448               0.996646418     -28.5308209   0.000136181829      74.8772894   0.000136181829      74.8772894      0.996660675     -28.4478802
0.1456                0.99662718     -28.6870266   0.000137236549      74.7184303   0.000137236549      74.7184303      0.996641551     -28.6035864
0.1464               0.996607944     -28.8432065   0.000138294346      74.5587322   0.000138294346      74.5587322       0.99662243     -28.7592663
0.1472               0.996588711     -28.9993627   0.000139355211      74.3982019   0.000139355211      74.3982019      0.996603312     -28.9149218
0.148                0.996569481     -29.1554951   0.000140419126      74.2368482   0.000140419126      74.2368483      0.996584196     -29.0705528
0.1488               0.996550343     -29.3115975   0.000141486059      74.0746952   0.000141486059      74.0746952      0.996565174     -29.2261533
0.1496               0.996530993     -29.4676868   0.000142556024      73.9117035   0.000142556024      73.9117035       0.99654594     -29.3817398
0.1504               0.996511644     -29.6237499   0.000143628975      73.7479166   0.000143628975      73.7479167      0.996526708     -29.5372996
0.1512               0.996492297     -29.7797889   0.000144704903      73.5833413   0.000144704903      73.5833413      0.996507478     -29.6928345
0.152                0.996472953     -29.9358034   0.000145783789      73.4179862   0.000145783789      73.4179862      0.996488251     -29.8483443
0.1528               0.996453697     -30.0917878   0.000146865602      73.2518737   0.000146865602      73.2518737      0.996469112     -30.0038234
0.1536               0.996434237      -30.247758   0.000147950352      73.0849676   0.000147950352      73.0849677       0.99644977     -30.1592875
0.1544               0.996414778     -30.4037016   0.000149037995      72.9173091   0.000149037995      72.9173091       0.99643043     -30.3147244
0.1552               0.996395322     -30.5596205    0.00015012852      72.7489044    0.00015012852      72.7489044      0.996411092     -30.4701359
0.156                0.996375867     -30.7155145   0.000151221909       72.579762   0.000151221909       72.579762      0.996391757     -30.6255218
0.1568               0.996356495     -30.8713781   0.000152318131      72.4099032   0.000152318131      72.4099032      0.996372505     -30.7808766