! TOUCHSTONE file generated by CST MICROWAVE STUDIO
! Date and time: Thu Oct 30 19:20:40 2025
! Project name: ResonadorAnillo_PadsGndDesplazados_AnchoPistaPin.cst
! Parameters = {Eeff=2.76858; Er=3.55; H=1.56; L1=45.0747; L2=45.0747; L_Ang=9; L_AngTrans=1; L_Base=6.5; L_PadGND=4; L_Pin=4; L_conn=4; L_sma=8.5; Landa=180.299; R_Diel=2.08; R_Pin=0.45; R_sma=2.58; T=0.035; T_teflon=1.52; W=3.3; W_Base=1.5; W_PadGND=1.8; W_PistaPin=2.4; W_conn=0.9; Wa=3.3; X=70; Y=122.745; c=3e+11; d_Borde=0.27; f=1e+09; r=28.6954; s=0.3}
! Header version: 2024
! Port assignment regex: !\s*Touchstone port\s*([0-9]+)\s*=\s*(CST MWS port|CST DES external port|CST DES block port)\s*(.+)\s* \(\"(.*)\"\)(\s*mode\s*([0-9]+))?.*
! Touchstone port assignment:
! Touchstone port 1 = CST MWS port 1 ("")
! Touchstone port 2 = CST MWS port 2 ("")
# GHz S MA R 62.45
0                     1.00001153               0   4.94142028e-07               0   4.94142034e-07               0       1.00001149               0
0.0008               0.999971499    -0.160020202   8.53744262e-07      140.200325    8.5374426e-07      140.200326      0.999971535    -0.159658109
0.0016               0.999937331    -0.320089199   9.82554869e-07       123.09528   9.82554867e-07       123.09528      0.999937445    -0.319364539
0.0024               0.999903277    -0.480205275   1.61569286e-06      91.9198031   1.61569285e-06      91.9198031      0.999903469    -0.479117048
0.0032               0.999869714    -0.640339955   2.70286691e-06      85.8528904   2.70286691e-06      85.8528904      0.999869972     -0.63888799
0.004                0.999836469    -0.800470958   3.75952681e-06      86.2887317   3.75952681e-06      86.2887317       0.99983679    -0.798655461
0.0048                0.99980334    -0.960594025   4.72859824e-06      87.3688491   4.72859824e-06      87.3688491      0.999803723    -0.958415176
0.0056               0.999770224      -1.1207103   5.63493727e-06      88.2013765   5.63493727e-06      88.2013765      0.999770669     -1.11816822
0.0064               0.999737077     -1.28082114    6.5029998e-06      88.7413635    6.5029998e-06      88.7413635      0.999737585      -1.2779159
0.0072               0.999703877     -1.44092672   7.34876016e-06      89.0653877   7.34876016e-06      89.0653877      0.999704449     -1.43765837
0.008                0.999670618     -1.60102832   8.18198564e-06      89.2455264   8.18198564e-06      89.2455264      0.999671253     -1.59739691
0.0088               0.999632621     -1.76139837   9.01000714e-06      89.3243888   9.01000714e-06      89.3243888       0.99963333     -1.75740345
0.0096               0.999593653     -1.92182036   9.83544631e-06      89.3449981   9.83544631e-06      89.3449981      0.999594437     -1.91746187
0.0104               0.999564855     -2.08171468    1.0657789e-05      89.3476831    1.0657789e-05      89.3476831      0.999565695     -2.07699362
0.0112               0.999548695     -2.24129381   1.14797315e-05      89.3466919   1.14797315e-05      89.3466919      0.999549568      -2.2362108
0.012                0.999534918      -2.4011108   1.23051106e-05      89.3335164   1.23051106e-05      89.3335164       0.99953582     -2.39566543
0.0128               0.999519832      -2.5612148   1.31348981e-05      89.3094144   1.31348981e-05      89.3094144      0.999520766     -2.55540662
0.0136               0.999498095     -2.72170317   1.39700823e-05      89.2725508   1.39700823e-05      89.2725508      0.999499072     -2.71553154
0.0144                0.99947738      -2.8819112   1.48077456e-05      89.2363344   1.48077457e-05      89.2363344      0.999478399     -2.87537668
0.0152               0.999457647     -3.04204131   1.56492592e-05      89.2020363   1.56492592e-05      89.2020363      0.999458706     -3.03514409
0.016                0.999438885     -3.20213807   1.64951299e-05      89.1704564   1.64951299e-05      89.1704564      0.999439982     -3.19487829
0.0168                0.99942463     -3.36198257   1.73445212e-05       89.145656   1.73445212e-05       89.145656      0.999425756     -3.35436072
0.0176               0.999404558      -3.5221654   1.82005445e-05      89.1172089   1.82005445e-05      89.1172089      0.999405725     -3.51418095
0.0184               0.999385155     -3.68229613   1.90614775e-05      89.0920497   1.90614775e-05      89.0920497      0.999386361     -3.67394926
0.0192               0.999366415     -3.84239894   1.99276348e-05      89.0700024   1.99276348e-05      89.0700024      0.999367659     -3.83368976
0.02                 0.999348337      -4.0024735   2.07991984e-05      89.0508401   2.07991984e-05      89.0508401      0.999349618     -3.99340215
0.0208               0.999333522     -4.16236177    2.1675576e-05      89.0364776   2.16755761e-05      89.0364776      0.999334833     -4.15292865
0.0216               0.999314525      -4.3224915   2.25590296e-05      89.0203671   2.25590296e-05      89.0203671      0.999315875     -4.31269627
0.0224               0.999296021     -4.48258514   2.34483813e-05      89.0062684   2.34483813e-05      89.0062684      0.999297408     -4.47242795
0.0232               0.999278007     -4.64265887   2.43438946e-05      88.9938499   2.43438946e-05      88.9938499       0.99927943     -4.63213985
0.024                0.999260481     -4.80271088    2.5245741e-05      88.9828002    2.5245741e-05      88.9828003       0.99926194     -4.79183016
0.0248               0.999245357     -4.96262389   2.61535316e-05      88.9741805   2.61535316e-05      88.9741805      0.999246847     -4.95138182
0.0256                0.99922703     -5.12271769   2.70690012e-05       88.963702   2.70690012e-05       88.963702      0.999228557     -5.11111404
0.0264               0.999209081     -5.28277933   2.79913008e-05      88.9537095   2.79913008e-05      88.9537095      0.999210644     -5.27081427
0.0272               0.999191507     -5.44282422   2.89207019e-05      88.9439086   2.89207019e-05      88.9439086      0.999193105     -5.43049788
0.028                0.999174308     -5.60285092   2.98573906e-05      88.9340318   2.98573906e-05      88.9340318      0.999175941     -5.59016345
0.0288               0.999158966     -5.76276791   3.08011175e-05       88.924746   3.08011175e-05       88.924746      0.999160629     -5.74971961
0.0296               0.999141067     -5.92282595   3.17532937e-05      88.9130629   3.17532937e-05      88.9130629      0.999142765     -5.90941669
0.0304               0.999123464     -6.08285515   3.27132967e-05      88.9005656   3.27132967e-05      88.9005656      0.999125198      -6.0690851
0.0312               0.999106158     -6.24286942    3.3681407e-05      88.8870067    3.3681407e-05      88.8870067      0.999107925     -6.22873873
0.032                0.999089146     -6.40286754    3.4657828e-05      88.8721616    3.4657828e-05      88.8721616      0.999090947     -6.38837636
0.0328               0.999073621     -6.56277551   3.56424122e-05       88.856473   3.56424122e-05       88.856473      0.999075453     -6.54792414
0.0336               0.999055991     -6.72279671    3.6636357e-05       88.837747    3.6636357e-05       88.837747      0.999057857     -6.70758507
0.0344                 0.9990386      -6.8827916   3.76392055e-05      88.8171014   3.76392055e-05      88.8171014      0.999040499     -6.86721987
0.0352               0.999021446     -7.04277258   3.86512489e-05      88.7943176   3.86512489e-05      88.7943176      0.999023379     -7.02684093
0.036                 0.99900453      -7.2027386   3.96727092e-05      88.7691934   3.96727092e-05      88.7691934      0.999006495     -7.18644719
0.0368               0.998988836     -7.36262823    4.0703518e-05      88.7420226    4.0703518e-05      88.7420226      0.998990831     -7.34597735
0.0376               0.998971368     -7.52261062   4.17447258e-05      88.7111168   4.17447258e-05      88.7111168      0.998973396     -7.50560024
0.0384               0.998954096     -7.68256854    4.2796002e-05      88.6772805    4.2796002e-05      88.6772805      0.998956156     -7.66519886
0.0392               0.998937017      -7.8425131   4.38576502e-05      88.6403029   4.38576502e-05      88.6403029      0.998939109      -7.8247843
0.04                 0.998920133     -8.00244333   4.49299115e-05       88.599984   4.49299115e-05       88.599984      0.998922257     -7.98435558
0.0408               0.998904274     -8.16230724   4.60127805e-05      88.5565023   4.60127805e-05      88.5565023      0.998906427     -8.14386083
0.0416               0.998886894     -8.32224823   4.71072023e-05      88.5084987   4.71072023e-05      88.5084987      0.998889078     -8.30344317
0.0424               0.998869676      -8.4821661    4.8212945e-05      88.4565459    4.8212945e-05      88.4565459      0.998871891      -8.4630026
0.0432               0.998852619     -8.64207081   4.93303232e-05      88.4004204   4.93303232e-05      88.4004205      0.998854865     -8.62254906
0.044                0.998835724     -8.80196147   5.04595933e-05      88.3399048   5.04595934e-05      88.3399048         0.998838     -8.78208167
0.0448               0.998819702     -8.96179335   5.16007984e-05      88.2750757   5.16007984e-05      88.2750757      0.998822006     -8.94155578
0.0456               0.998802358     -9.12168997   5.27548004e-05      88.2047853   5.27548004e-05      88.2047853      0.998804692     -9.10109467
0.0464                0.99878515     -9.28156441   5.39214399e-05      88.1294179   5.39214399e-05      88.1294179      0.998787513     -9.26061161
0.0472               0.998768078     -9.44142565   5.51010335e-05      88.0487167   5.51010335e-05      88.0487167       0.99877047     -9.42011555
0.048                0.998751143     -9.60127288   5.62938407e-05      87.9624252   5.62938407e-05      87.9624252      0.998753564     -9.57960569
0.0488               0.998734963     -9.76106712   5.74999298e-05      87.8705188   5.74999298e-05      87.8705188       0.99873741     -9.73904312
0.0496                0.99871762     -9.92091609   5.87200814e-05      87.7719753   5.87200814e-05      87.7719753      0.998720095     -9.89853537
0.0504               0.998700393     -10.0807434   5.99541723e-05      87.6670105   5.99541723e-05      87.6670105      0.998702896     -10.0580062
0.0512               0.998683285     -10.2405567   6.12024918e-05      87.5553117   6.12024919e-05      87.5553117      0.998685814     -10.2174632
0.052                0.998666294     -10.4003564   6.24652769e-05      87.4365591   6.24652769e-05      87.4365591      0.998668849     -10.3769069
0.0528               0.998649965     -10.5601097   6.37425863e-05      87.3106165   6.37425863e-05      87.3106165      0.998652545     -10.5363043
0.0536               0.998632602     -10.7199129   6.50350975e-05      87.1765186   6.50350976e-05      87.1765186      0.998635207     -10.6957519
0.0544               0.998615343     -10.8796978   6.63426581e-05      87.0343179   6.63426581e-05      87.0343179      0.998617973     -10.8551813
0.0552               0.998598188     -11.0394586   6.76653939e-05      86.8836335   6.76653939e-05      86.8836335      0.998600843     -11.0145869
0.056                 0.99858114     -11.1991966   6.90034437e-05      86.7240588   6.90034437e-05      86.7240588      0.998583817     -11.1739699
0.0568               0.998564678     -11.3588868    7.0356783e-05        86.55533   7.03567831e-05        86.55533      0.998567378     -11.3333055
0.0576               0.998547295     -11.5186195   7.17259155e-05       86.376483   7.17259155e-05       86.376483      0.998550017     -11.4926836
0.0584               0.998530005     -11.6783397   7.31105782e-05      86.1873985   7.31105782e-05      86.1873985      0.998532748     -11.6520495
0.0592               0.998512809     -11.8380521   7.45107459e-05      85.9875842   7.45107459e-05      85.9875842      0.998515573     -11.8114078
0.06                 0.998495709      -11.997753   7.59262728e-05       85.776535   7.59262728e-05       85.776535      0.998498493     -11.9707548
0.0608               0.998479137     -12.1574124   7.73567998e-05      85.5538647   7.73567998e-05      85.5538647       0.99848194     -12.1300605
0.0616                0.99846174     -12.3171032   7.88023858e-05      85.3185924   7.88023858e-05      85.3185924      0.998464561     -12.2893978
0.0624               0.998444434     -12.4767688   8.02623396e-05      85.0704506   8.02623397e-05      85.0704506      0.998447273     -12.4487103
0.0632               0.998427218     -12.6364192   8.17361946e-05      84.8088435   8.17361946e-05      84.8088435      0.998430075     -12.6080077
0.064                0.998410097     -12.7960547   8.32232823e-05      84.5331699   8.32232823e-05      84.5331699      0.998412969     -12.7672904
0.0648               0.998393457     -12.9556507   8.47226442e-05      84.2429382   8.47226442e-05      84.2429382      0.998396344     -12.9265339
0.0656               0.998376078     -13.1152755    8.6233603e-05      83.9371578   8.62336031e-05      83.9371578      0.998378979     -13.0858064
0.0664               0.998358789       -13.27488   8.77546864e-05      83.6154655   8.77546864e-05      83.6154655      0.998361704     -13.2450587
0.0672               0.998341592     -13.4344699   8.92844756e-05      83.2772409   8.92844756e-05      83.2772409       0.99834452     -13.4042967
0.068                 0.99832449      -13.594045    9.0821251e-05      82.9218842    9.0821251e-05      82.9218842       0.99832743       -13.56352
0.0688               0.998307836     -13.7535828   9.23628926e-05      82.5489238   9.23628926e-05      82.5489238      0.998310786     -13.7227064
0.0696               0.998290519     -13.9131456   9.39073875e-05      82.1575003   9.39073875e-05      82.1575003       0.99829348     -13.8819178
0.0704               0.998273296     -14.0726887   9.54518397e-05      81.7473504   9.54518397e-05      81.7473504      0.998276267     -14.0411097
0.0712                0.99825617     -14.2322175   9.69932437e-05      81.3180519   9.69932437e-05      81.3180519      0.998259149     -14.2002876
0.072                0.998239142     -14.3917318   9.85281562e-05      80.8692778   9.85281562e-05      80.8692778       0.99824213     -14.3594511
0.0728               0.998222534     -14.5512115   0.000100052611      80.4009027   0.000100052611      80.4009027      0.998225529     -14.5185802
0.0736                0.99820533     -14.7107134   0.000101562593      79.9125688   0.000101562593      79.9125688      0.998208334     -14.6777317
0.0744               0.998188223     -14.8701966   0.000103053155      79.4045579   0.000103053155      79.4045579      0.998191235     -14.8368646
0.0752               0.998171214     -15.0296666   0.000104519154       78.877148   0.000104519154       78.877148      0.998174234     -14.9959845
0.076                0.998154302     -15.1891232    0.00010595499      78.3308506    0.00010595499      78.3308506      0.998157331     -15.1550911
0.0768               0.998137779     -15.3485481   0.000107354586      77.7665172   0.000107354586      77.7665172      0.998140817     -15.3141663
0.0776               0.998120711     -15.5079936   0.000108711888      77.1849695   0.000108711888      77.1849695      0.998123759     -15.4732621
0.0784                0.99810373     -15.6674222   0.000110020145      76.5877726   0.000110020145      76.5877726       0.99810679     -15.6323413
0.0792               0.998086833     -15.8268392   0.000111272682      75.9766709   0.000111272682      75.9766709      0.998089906     -15.7914089
0.08                 0.998070015     -15.9862444   0.000112462776      75.3537938   0.000112462776      75.3537938      0.998073103     -15.9504649
0.0808               0.998053538     -16.1456212   0.000113583759      74.7217355   0.000113583759      74.7217355      0.998056642     -16.1094927
0.0816               0.998036535     -16.3050176   0.000114629603      74.0832061   0.000114629603      74.0832061       0.99803966     -16.2685402
0.0824               0.998019584     -16.4643989   0.000115594396      73.4416812   0.000115594396      73.4416812      0.998022732     -16.4275729
0.0832               0.998002675     -16.6237696   0.000116473163      72.8008573   0.000116473163      72.8008573       0.99800585     -16.5865952
0.084                0.997985798     -16.7831301   0.000117261853      72.1647753   0.000117261853      72.1647753      0.997989003     -16.7456075
0.0848               0.997969186     -16.9424653   0.000117957501      71.5378245   0.000117957501      71.5378246      0.997972425     -16.9045948
0.0856               0.997952034     -17.1018203   0.000118558775      70.9243553   0.000118558775      70.9243553      0.997955312     -17.0636021
0.0864               0.997934872      -17.261162   0.000119065472       70.329175   0.000119065473       70.329175      0.997938193     -17.2225965
0.0872               0.997917689     -17.4204877   0.000119479148      69.7569849   0.000119479148       69.756985      0.997921057     -17.3815752
0.088                0.997900471     -17.5797976   0.000119803042      69.2123974   0.000119803042      69.2123974      0.997903892     -17.5405386
0.0888               0.997883437     -17.7390796   0.000120041989      68.6998735   0.000120041989      68.6998735      0.997886913     -17.6994744
0.0896               0.997865837      -17.898377   0.000120202651      68.2233237   0.000120202651      68.2233237      0.997869375     -17.8584261
0.0904               0.997848169     -18.0576619   0.000120292793      67.7865164   0.000120292793      67.7865164      0.997851772     -18.0173657
0.0912               0.997830426     -18.2169362   0.000120321549       67.392561   0.000120321549       67.392561      0.997834098     -18.1762952
0.092                0.997812603     -18.3761973   0.000120298997      67.0439493   0.000120298997      67.0439493      0.997816347     -18.3352121
0.0928               0.997794908     -18.5354295   0.000120235856      66.7425361   0.000120235856      66.7425361      0.997798727     -18.4941007
0.0936               0.997776654     -18.6946687   0.000120143458      66.4892473   0.000120143458      66.4892473      0.997780551     -18.6529969
0.0944               0.997758314     -18.8538852   0.000120032956      66.2845346   0.000120032956      66.2845346      0.997762292     -18.8118709
0.0952               0.997739889     -19.0130836   0.000119915474      66.1280095   0.000119915474      66.1280095      0.997743948     -18.9707274
0.096                0.997721382     -19.1722635   0.000119801659      66.0186005   0.000119801659      66.0186006      0.997725525     -19.1295659
0.0968               0.997702996     -19.3314115   0.000119701444      65.9546514   0.000119701444      65.9546514      0.997707222     -19.2883733
0.0976               0.997684095     -19.4905626   0.000119624111      65.9337663   0.000119624111      65.9337663      0.997688407     -19.4471843
0.0984               0.997665127       -19.64969   0.000119577735      65.9533194   0.000119577735      65.9533194      0.997669523     -19.6059722
0.0992               0.997646098     -19.8087969   0.000119569473      66.0102092   0.000119569473      66.0102092      0.997650579     -19.7647403
0.1                  0.997627015     -19.9678828   0.000119605374      66.1010614   0.000119605374      66.1010614      0.997631581     -19.9234878
0.1008                0.99760807     -20.1269354   0.000119690362      66.2223604   0.000119690362      66.2223604      0.997612719     -20.0822027
0.1016               0.997588669     -20.2859877   0.000119828475      66.3703328   0.000119828475      66.3703328      0.997593401     -20.2409179
0.1024               0.997569234      -20.445015   0.000120022546      66.5414109   0.000120022546      66.5414109      0.997574047     -20.3996085
0.1032                0.99754977     -20.6040205   0.000120274609      66.7319962   0.000120274609      66.7319962      0.997554663     -20.5582779
0.104                0.997530282     -20.7630038   0.000120585851       66.938616   0.000120585851       66.938616      0.997535254     -20.7169258
0.1048                0.99751095     -20.9219539   0.000120956693      67.1580039   0.000120956693      67.1580039      0.997515998     -20.8755409
0.1056               0.997491214     -21.0809017   0.000121387069       67.386949   0.000121387069       67.386949      0.997496339     -21.0341543
0.1064                0.99747147     -21.2398242   0.000121876199      67.6226697   0.000121876199      67.6226697      0.997476669     -21.1927428
0.1072                0.99745172     -21.3987246   0.000122422959      67.8625482   0.000122422959      67.8625482      0.997456991     -21.3513098
0.108                0.997431968     -21.5576027   0.000123025854      68.1042265   0.000123025854      68.1042265      0.997437311     -21.5098549
0.1088               0.997412378     -21.7164481   0.000123683077      68.3456358   0.000123683077      68.3456358       0.99741779     -21.6683679
0.1096               0.997392426     -21.8752901   0.000124392748        68.58482   0.000124392748        68.58482      0.997397906     -21.8268779
0.1104               0.997372478     -22.0341068    0.00012515267      68.8202427    0.00012515267      68.8202427      0.997378026     -21.9853631
0.1112               0.997352538     -22.1929014   0.000125960647      69.0505169   0.000125960647      69.0505169      0.997358151     -22.1438268
0.112                0.997332607     -22.3516738   0.000126814413      69.2744703   0.000126814413      69.2744703      0.997338283     -22.3022686
0.1128               0.997312838     -22.5104142   0.000127711659      69.4911547   0.000127711659      69.4911547      0.997318576      -22.460679
0.1136               0.997292734     -22.6691501   0.000128650213      69.6996725   0.000128650213      69.6996725      0.997298534     -22.6190853
0.1144               0.997272643     -22.8278609   0.000129627788      69.8994486   0.000129627788      69.8994486      0.997278502      -22.777467
0.1152               0.997252563     -22.9865497   0.000130642243      70.0899782   0.000130642243      70.0899782      0.997258481     -22.9358271
0.116                0.997232497     -23.1452162   0.000131691491      70.2708844   0.000131691491      70.2708844      0.997238472     -23.0941655
0.1168               0.997212586     -23.3038513   0.000132773499      70.4419275   0.000132773499      70.4419275      0.997218617     -23.2524729
0.1176               0.997192363     -23.4624808   0.000133886433      70.6028465   0.000133886433      70.6028465      0.997198449     -23.4107751
0.1184               0.997172153     -23.6210853   0.000135028413      70.7536128   0.000135028413      70.7536128      0.997178294     -23.5690529
0.1192               0.997151956     -23.7796674   0.000136197733      70.8942021   0.000136197733      70.8942021      0.997158151     -23.7273087
0.12                 0.997131774     -23.9382273   0.000137392767      71.0246512   0.000137392767      71.0246512       0.99713802     -23.8855428
0.1208               0.997111738     -24.0967568   0.000138611959      71.1450714   0.000138611959      71.1450714      0.997118036      -24.043747
0.1216               0.997091407     -24.2552807   0.000139853947      71.2555085   0.000139853947      71.2555085      0.997097756      -24.201946
0.1224               0.997071089     -24.4137804   0.000141117326      71.3561806   0.000141117327      71.3561806      0.997077488     -24.3601213
0.1232               0.997050784     -24.5722546   0.000142400829      71.4472758   0.000142400829      71.4472758      0.997057231     -24.5182716
0.124                0.997030491     -24.7307035   0.000143703281      71.5290017   0.000143703281      71.5290017      0.997036987     -24.6763971
0.1248               0.997010337     -24.8891208   0.000145023566      71.6016042   0.000145023566      71.6016042      0.997016881     -24.8344914
0.1256               0.996989903     -25.0475312   0.000146360738       71.665243   0.000146360738       71.665243      0.996996493     -24.9925793
0.1264               0.996969479     -25.2059189   0.000147713797      71.7202145   0.000147713797      71.7202145      0.996976116     -25.1506451
0.1272               0.996949066     -25.3642858   0.000149081866      71.7667668   0.000149081866      71.7667668      0.996955749     -25.3086904
0.128                0.996928664     -25.5226305   0.000150464114      71.8051538   0.000150464114      71.8051538      0.996935392     -25.4667142
0.1288               0.996908392     -25.6809446   0.000151859745      71.8356516   0.000151859745      71.8356516      0.996915164     -25.6247078
0.1296               0.996887852     -25.8392491     0.0001532681      71.8584446     0.0001532681      71.8584446      0.996894668     -25.7826923
0.1304               0.996867322     -25.9975269   0.000154688463       71.873833   0.000154688463       71.873833      0.996874181     -25.9406505
0.1312               0.996846801     -26.1557813   0.000156120237      71.8820601   0.000156120237      71.8820601      0.996853703     -26.0985859
0.132                0.996826289     -26.3140123   0.000157562847      71.8833677   0.000157562847      71.8833677      0.996833234     -26.2564984
0.1328               0.996805899     -26.4722126   0.000159015738      71.8780127   0.000159015738      71.8780127      0.996812885     -26.4143807
0.1336               0.996785253     -26.6304028    0.00016047847      71.8661622    0.00016047847      71.8661622       0.99679228     -26.5722534
0.1344               0.996764615     -26.7885672   0.000161950534      71.8480868   0.000161950534      71.8480868      0.996771684     -26.7301008
0.1352               0.996743984      -26.946708   0.000163431515      71.8240023   0.000163431515      71.8240023      0.996751094     -26.8879251
0.136                0.996723361      -27.104825    0.00016492101      71.7941202    0.00016492101      71.7941202      0.996730511     -27.0457262
0.1368               0.996702852     -27.2629113   0.000166418626      71.7586635   0.000166418626      71.7586635      0.996710041      -27.203497
0.1376               0.996682099     -27.4209864   0.000167924067      71.7177706   0.000167924067      71.7177706      0.996689327     -27.3612572
0.1384               0.996661352     -27.5790352   0.000169436966      71.6716749   0.000169436967      71.6716749      0.996668619     -27.5189916
0.1392               0.996640611       -27.73706   0.000170957034      71.6205579   0.000170957034      71.6205579      0.996647916     -27.6767026
0.14                 0.996619876     -27.8950606   0.000172483985      71.5645965   0.000172483985      71.5645965       0.99662722     -27.8343898
0.1408               0.996599248     -28.0530302   0.000174017537      71.5039787   0.000174017538      71.5039787      0.996606629     -27.9920467
0.1416               0.996578386     -28.2109876   0.000175557491       71.438813   0.000175557491       71.438813      0.996585805     -28.1496918
0.1424                0.99655753     -28.3689184   0.000177103574      71.3692969   0.000177103574      71.3692969      0.996564986     -28.3073108
0.1432               0.996536678     -28.5268246   0.000178655582      71.2955797   0.000178655582      71.2955797      0.996544171     -28.4649058
0.144                0.996515832     -28.6847061    0.00018021331      71.2178068    0.00018021331      71.2178068       0.99652336     -28.6224767
0.1448               0.996495086     -28.8425565    0.00018177655      71.1361341    0.00018177655      71.1361341       0.99650265     -28.7800171
0.1456               0.996474116     -29.0003936   0.000183345166      71.0506444   0.000183345166      71.0506444      0.996481716     -28.9375446
0.1464                0.99645315     -29.1582037   0.000184918951      70.9615037   0.000184918951      70.9615037      0.996460786     -29.0950456
0.1472               0.996432189     -29.3159887   0.000186497759      70.8688336   0.000186497759      70.8688336      0.996439859     -29.2525222
0.148                0.996411231     -29.4737485   0.000188081439      70.7727528   0.000188081439      70.7727528      0.996418936     -29.4099741
0.1488               0.996390368      -29.631477   0.000189669831      70.6733903   0.000189669831      70.6733903      0.996398107     -29.5673954
0.1496               0.996369291     -29.7891912   0.000191262844      70.5708075   0.000191262844      70.5708075      0.996377065     -29.7248027
0.1504               0.996348218     -29.9468779   0.000192860314      70.4651445   0.000192860314      70.4651445      0.996356025     -29.8821832
0.1512               0.996327147      -30.104539   0.000194462135      70.3564999   0.000194462135      70.3564999      0.996334988     -30.0395387
0.152                 0.99630608     -30.2621745   0.000196068193      70.2449706   0.000196068193      70.2449706      0.996313954     -30.1968691
0.1528               0.996285102     -30.4197784   0.000197678362      70.1306638   0.000197678362      70.1306638      0.996293009     -30.3541686
0.1536                0.99626392      -30.577367   0.000199292577       70.013624   0.000199292577       70.013624      0.996271859     -30.5114532
0.1544                0.99624274     -30.7349277    0.00020091071      69.8939697    0.00020091071      69.8939697      0.996250711     -30.6687106
0.1552               0.996221562     -30.8924623   0.000202532677      69.7717814   0.000202532677      69.7717814      0.996229566     -30.8259424
0.156                0.996200388     -31.0499707    0.00020415839      69.6471385    0.00020415839      69.6471385      0.996208423     -30.9831486
0.1568               0.996179298     -31.2074474   0.000205787748      69.5201304   0.000205787748      69.5201304      0.996187364     -31.1403237