! TOUCHSTONE file generated by CST MICROWAVE STUDIO
! Date and time: Sun Jun 29 13:19:35 2025
! Project name: ResonadorAnillo.cst
! Parameters = {Eeff=2.85062; Er=3.66; H=1.524; L1=29.6142; L2=29.6142; Landa=118.457; T=0.017; W=3.30928; Wa=3.30928; X=81.9908; Y=81.9908; c=3e+11; f=1.5e+09; r=18.853; s=0.3}
! Header version: 2024
! Port assignment regex: !\s*Touchstone port\s*([0-9]+)\s*=\s*(CST MWS port|CST DES external port|CST DES block port)\s*(.+)\s* \(\"(.*)\"\)(\s*mode\s*([0-9]+))?.*
! Touchstone port assignment:
! Touchstone port 1 = CST MWS port 1 ("")
! Touchstone port 2 = CST MWS port 2 ("")
# GHz S DB R 50
0                 3.41777904e-06               0      -146.279393               0      -146.279393               0   3.58987127e-06               0
0.002            -0.000161001563    -0.171576878      -116.295816      88.9020936      -116.295816      88.9020936  -0.000164777207    -0.171578604
0.004            -0.000323026893    -0.343153637      -110.237917      89.2997052      -110.237917      89.2997052  -0.000330618822    -0.343157156
0.006            -0.000485033068    -0.514730409      -106.696006      89.2988795      -106.696006      89.2988795  -0.000496443256    -0.514735653
0.008            -0.000647048261    -0.686307504      -104.187716      89.1956344      -104.187716      89.1956345  -0.000662270341    -0.686314419
0.01             -0.000809101679    -0.857885088       -102.24662       89.062605       -102.24662       89.062605  -0.000828126424    -0.857893639
0.012              -0.0009011008     -1.02911294      -100.666178      88.9464165      -100.666178      88.9464165  -0.000945063195     -1.02926752
0.014            -0.000970366807     -1.20044691        -99.33076      88.8327109        -99.33076      88.8327109   -0.00104627242     -1.20078461
0.016             -0.00107564699     -1.37223556      -98.1731765      88.7147234      -98.1731765      88.7147234   -0.00113157437     -1.37241531
0.018             -0.00118790543     -1.54416207      -97.1522816      88.5984536      -97.1522816      88.5984536   -0.00120092156     -1.54407205
0.02              -0.00129511067     -1.71595244      -96.2391456      88.4789092      -96.2391456      88.4789092   -0.00130367718     -1.71593441
0.022             -0.00136263798     -1.88736827      -95.4143941      88.3649703      -95.4143941      88.3649703   -0.00139285138     -1.88760872
0.024             -0.00141859878     -2.05876045      -94.6614653      88.2518155      -94.6614653      88.2518155   -0.00147405232     -2.05918263
0.026             -0.00150772326     -2.23043408      -93.9680772      88.1355223      -93.9680772      88.1355223   -0.00154767753     -2.23067737
0.028             -0.00160341075     -2.40216108      -93.3257069       88.018325      -93.3257069       88.018325   -0.00161376496     -2.40212609
0.03              -0.00169617548     -2.57383077      -92.7269978      87.8980824      -92.7269978      87.8980824   -0.00170169831     -2.57380177
0.032             -0.00176388742     -2.74530936      -92.1668805      87.7787613      -92.1668805      87.7787613   -0.00178172295     -2.74545007
0.034             -0.00182561328     -2.91678383      -91.6404077      87.6585657      -91.6404077      87.6585657    -0.0018571918     -2.91703299
0.036             -0.00190677527     -3.08841647      -91.1434685      87.5358197      -91.1434685      87.5358197   -0.00192845738     -3.08857103
0.038             -0.00199114672     -3.26007812      -90.6729815      87.4116481      -90.6729815      87.4116481   -0.00199554616     -3.26008897
0.04              -0.00207324391     -3.43171033      -90.2261682      87.2860945      -90.2261682      87.2860945   -0.00207692698     -3.43171204
0.042             -0.00214015643     -3.60323669      -89.8009081      87.1609004      -89.8009081      87.1609004   -0.00215335431     -3.60332947
0.044             -0.00220331735     -3.77475975      -89.3950688      87.0348046      -89.3950688      87.0348046   -0.00222687031     -3.77492001
0.046             -0.00227967988     -3.94638722      -89.0067944      86.9069498      -89.0067944      86.9069498   -0.00229775957     -3.94649169
0.048             -0.00235800255     -4.11803143       -88.634658      86.7779864       -88.634658      86.7779864   -0.00236603063     -4.11805291
0.05              -0.00243459235     -4.28965494      -88.2772674      86.6477721      -88.2772674      86.6477721   -0.00244248343     -4.28968461
0.052             -0.00250068508     -4.46120672      -87.9335845       86.517256      -87.9335845       86.517256    -0.0025155431     -4.46130106
0.054             -0.00256415585     -4.63275637      -87.6025166       86.385911      -87.6025166       86.385911     -0.002586489     -4.63289716
0.056             -0.00263736392     -4.80438257      -87.2830661      86.2532241      -87.2830661      86.2532241   -0.00265553337     -4.80448046
0.058             -0.00271192753     -4.97602054      -86.9744562      86.1196015      -86.9744562      86.1196015   -0.00272268247     -4.97605834
0.06              -0.00278514081     -5.14764353      -86.6759042      85.9848853      -86.6759042      85.9848853   -0.00279606084     -5.14769487
0.062              -0.0028505439     -5.31921378      -86.3868263      85.8497009      -86.3868263      85.8497009   -0.00286685863     -5.31932052
0.064             -0.00291398703     -5.49078278       -86.106585      85.7137633       -86.106585      85.7137633   -0.00293601615     -5.49092833
0.066             -0.00298501148     -5.66241154      -85.8345848      85.5767325      -85.8345848      85.5767325   -0.00300372418      -5.6625223
0.068             -0.00305705293     -5.83404953      -85.5703592      85.4388813      -85.5703592      85.4388813   -0.00306998625     -5.83410569
0.07              -0.00312801731     -6.00567638      -85.3134279      85.3000858      -85.3134279      85.3000858   -0.00314123423     -6.00572648
0.072              -0.0031928864      -6.1772624      -85.0634204      85.1607721      -85.0634204      85.1607721   -0.00321044772     -6.17734198
0.074             -0.00325622301     -6.34884782      -84.8199232      85.0207502      -84.8199232      85.0207502   -0.00327835298     -6.34895945
0.076             -0.00332569081     -6.52048201      -84.5825556      84.8797793      -84.5825556      84.8797793    -0.0033451242     -6.52057772
0.078             -0.00339596651       -6.692124      -84.3510199      84.7380542      -84.3510199      84.7380542   -0.00341076154     -6.69219416
0.08              -0.00346536658      -6.8637576      -84.1250036      84.5954815      -84.1250036      84.5954815   -0.00348051371     -6.86384194
0.082             -0.00352984813     -7.03535842      -83.9042675      84.4523726      -83.9042675      84.4523726   -0.00354861628     -7.03547691
0.084             -0.00359309293     -7.20695918      -83.6885329      84.3085939      -83.6885329      84.3085939   -0.00361563724     -7.20710329
0.086             -0.00366143805     -7.37860109      -83.4775369      84.1639624      -83.4775369      84.1639624   -0.00368174229     -7.37872483
0.088             -0.00373045288     -7.55024995      -83.2710732      84.0186186      -83.2710732      84.0186186   -0.00374693438     -7.55034443
0.09              -0.00379874538     -7.72189249       -83.068922      83.8724856       -83.068922      83.8724856    -0.0038156042     -7.72199552
0.092             -0.00386297001     -7.89350801      -82.8709183      83.7257967      -82.8709183      83.7257967   -0.00388291804     -7.89364061
0.094             -0.00392617328     -8.06512393      -82.6768674       83.578454      -82.6768674       83.578454   -0.00394932602     -8.06527912
0.096              -0.0039937132     -8.23677549       -82.486582      83.4303148       -82.486582      83.4303148   -0.00401498435     -8.23691428
0.098             -0.00406182696     -8.40843351      -82.2999151      83.2814855      -82.2999151      83.2814855   -0.00407989569     -8.40854847
0.1               -0.00412933853     -8.58008682      -82.1167084      83.1319038      -82.1167084      83.1319038   -0.00414780012     -8.58021012
0.102             -0.00419342177     -8.75171741      -81.9368433      82.9817496      -81.9368433      82.9817496   -0.00421457288     -8.75186701
0.104             -0.00425664703     -8.92334881      -81.7601772      82.8309468      -81.7601772      82.8309468    -0.0042805767     -8.92351887
0.106             -0.00432362485     -9.09501173      -81.5865718      82.6793811      -81.5865718      82.6793811   -0.00434595976     -9.09516857
0.108             -0.00439110772     -9.26668085       -81.415919       82.527135       -81.415919       82.527135   -0.00441072455      -9.2668181
0.11              -0.00445808494     -9.43834655      -81.2481011      82.3741573      -81.2481011      82.3741573   -0.00447810604     -9.43849206
0.112             -0.00452212978     -9.60999286      -81.0830302      82.2205901      -81.0830302      82.2205901   -0.00454453356     -9.61016228
0.114             -0.00458544471     -9.78164033      -80.9205989      82.0663726      -80.9205989      82.0663726    -0.0046103019     -9.78182874
0.116             -0.00465205404      -9.9533162      -80.7607021      81.9114111      -80.7607021      81.9114111   -0.00467555237     -9.95349401
0.118             -0.00471911781     -10.1249981      -80.6032582      81.7557711      -80.6032582      81.7557711   -0.00474028737     -10.1251598
0.12              -0.00478575528     -10.2966777      -80.4481774      81.5994099      -80.4481774      81.5994099   -0.00480734055     -10.2968477
0.122              -0.0048498548     -10.4683405       -80.295393      81.4424422       -80.295393      81.4424422   -0.00487358384     -10.4685327
0.124             -0.00491332758     -10.6400049      -80.1448221      81.2848185      -80.1448221      81.2848185   -0.00493925812      -10.640215
0.126             -0.00497972794     -10.8116952       -79.996383      81.1264602       -79.996383      81.1264602   -0.00500449876     -10.8118969
0.128              -0.0050465449     -10.9833915      -79.8500127      80.9674207      -79.8500127      80.9674207   -0.00506930808       -10.98358
0.13              -0.00511300213     -11.1550864      -79.7056412      80.8076639      -79.7056412      80.8076639   -0.00513619476     -11.1552832
0.132             -0.00517724172     -11.3267666       -79.563217      80.6472842       -79.563217      80.6472842    -0.0052023907     -11.3269845
0.134             -0.00524093969     -11.4984487      -79.4226745      80.4862402      -79.4226745      80.4862402   -0.00526809333     -11.4986838
0.136             -0.00530726653     -11.6701548      -79.2839494      80.3244657      -79.2839494      80.3244657   -0.00533343279     -11.6703836
0.138             -0.00537398145      -11.841867      -79.1469919      80.1620046      -79.1469919      80.1620046   -0.00539841138     -11.8420849
0.14               -0.0054403935     -12.0135786      -79.0117464      79.9988262      -79.0117464      79.9988262   -0.00546527021     -12.0138051
0.142             -0.00550485272     -12.1852773      -78.8781726      79.8350095      -78.8781726      79.8350095   -0.00553153861     -12.1855239
0.144             -0.00556884199     -12.3569781      -78.7462177      79.6705196      -78.7462177      79.6705196   -0.00559737849     -12.3572416
0.146             -0.00563521345     -12.5287014      -78.6158301      79.5052998      -78.6158301      79.5052998   -0.00566291531     -12.5289603
0.148              -0.0057019515     -12.7004308      -78.4869699      79.3393871      -78.4869699      79.3393871   -0.00572815141     -12.7006811
0.15              -0.00576843604     -12.8721604      -78.3595925      79.1727549      -78.3595925      79.1727549   -0.00579510451     -12.8724195
0.152             -0.00583319008     -13.0438785      -78.2336655      79.0054707      -78.2336655      79.0054707   -0.00586155296     -13.0441571
0.154             -0.00589753564      -13.215599      -78.1091462      78.8375044      -78.1091462      78.8375044   -0.00592762928     -13.2158944
0.156              -0.0059640573     -13.3873409      -77.9859922      78.6688073      -77.9859922      78.6688073   -0.00599345478     -13.3876332
0.158             -0.00603092944     -13.5590889      -77.8641714      78.4994108      -77.8641714      78.4994108    -0.0060590318     -13.5593746
0.16              -0.00609759161     -13.7308378      -77.7436473      78.3292921      -77.7436473      78.3292921   -0.00612618928     -13.7311327
0.162             -0.00616271248     -13.9025764      -77.6243939      78.1585092      -77.6243939      78.1585092   -0.00619291656     -13.9028904
0.164             -0.00622747847     -14.0743177      -77.5063758      77.9870365      -77.5063758      77.9870365   -0.00625932157     -14.0746485
0.166             -0.00629424664     -14.2460793      -77.3895581      77.8148314      -77.3895581      77.8148314   -0.00632552185     -14.2464086
0.168             -0.00636135347     -14.4178473      -77.2739145      77.6419212      -77.2739145      77.6419212    -0.0063915198     -14.4181717
0.17              -0.00642828928     -14.5896167      -77.1594148      77.4682862      -77.1594148      77.4682862    -0.0064589831     -14.5899507
0.172             -0.00649384675     -14.7613769      -77.0460379      77.2939771      -77.0460379      77.2939771   -0.00652608164       -14.76173
0.174             -0.00655909677       -14.93314      -76.9337542      77.1189716      -76.9337542      77.1189716   -0.00659290262       -14.93351
0.176             -0.00662620099     -15.1049227      -76.8225347      76.9432325      -76.8225347      76.9432325   -0.00665956017     -15.1052926
0.178             -0.00669363554     -15.2767119      -76.7123575      76.7667837      -76.7123575      76.7667837   -0.00672605674     -15.2770785
0.18              -0.00676093433     -15.4485031      -76.6031974      76.5896084      -76.6031974      76.5896084   -0.00679392099     -15.4488798
0.182              -0.0068269967      -15.620286      -76.4950372      76.4117513      -76.4950372      76.4117513   -0.00686147871     -15.6206818
0.184             -0.00689279418      -15.792072      -76.3878519      76.2331929      -76.3878519      76.2331929    -0.0069287995      -15.792485
0.186             -0.00696031906      -15.963877      -76.2816171      76.0539007      -76.2816171      76.0539007   -0.00699599437     -15.9642912
0.188             -0.00702816879     -16.1356887      -76.1763143      75.8738957      -76.1763143      75.8738957   -0.00706306582     -16.1361012
0.19               -0.0070959151     -16.3075028      -76.0719227      75.6931635      -76.0719227      75.6931635   -0.00713142163      -16.307926
0.192             -0.00716254981     -16.4793094      -75.9684277      75.5117443      -75.9684277      75.5117443   -0.00719952335     -16.4797519
0.194              -0.0072289583     -16.6511195      -75.8658082      75.3296207      -75.8658082      75.3296207   -0.00726742548     -16.6515795
0.196              -0.0072969849      -16.822948      -75.7640435      75.1467643      -75.7640435      75.1467643   -0.00733523619     -16.8234106
0.198             -0.00736533329     -16.9947834       -75.663118      74.9631939       -75.663118      74.9631939   -0.00740295804     -16.9952457
0.2               -0.00743360824     -17.1666216       -75.563014      74.7788972       -75.563014      74.7788972    -0.0074718929     -17.1670953
0.202             -0.00750088238     -17.3384531      -75.4637195      74.5939104      -75.4637195      74.5939104   -0.00754062139     -17.3389463
0.204             -0.00756796584     -17.5102883      -75.3652163      74.4082184      -75.3652163      74.4082184   -0.00760918499     -17.5107996
0.206             -0.00763657278     -17.6821415      -75.2674866      74.2217959      -75.2674866      74.2217959   -0.00767768926     -17.6826566
0.208             -0.00770550051     -17.8540018      -75.1705173      74.0346601      -75.1705173      74.0346601   -0.00774613684      -17.854518
0.21              -0.00777438288     -18.0258653      -75.0742932      73.8468006      -75.0742932      73.8468006   -0.00781573617     -18.0263936
0.212             -0.00784236361     -18.1977228      -74.9788043      73.6582504      -74.9788043      73.6582504   -0.00788517299      -18.198271
0.214             -0.00791018666     -18.3695841      -74.8840349       73.468996      -74.8840349       73.468996    -0.0079544775      -18.370151
0.216             -0.00797945096     -18.5414632      -74.7899697      73.2790153      -74.7899697      73.2790153   -0.00802375284     -18.5420351
0.218             -0.00804903682     -18.7133496      -74.6965974      73.0883239      -74.6965974      73.0883239   -0.00809300173      -18.713924
0.22              -0.00811860389     -18.8852396       -74.603905      72.8969131       -74.603905      72.8969131   -0.00816334975     -18.8858269
0.222              -0.0081873588     -19.0571242      -74.5118842      72.7048133      -74.5118842      72.7048133   -0.00823357591     -19.0577317
0.224             -0.00825598698     -19.2290128      -74.4205211      72.5120125      -74.4205211      72.5120125   -0.00830370064     -19.2296397
0.226             -0.00832598472     -19.4009189      -74.3298027      72.3184912      -74.3298027      72.3184912   -0.00837382482     -19.4015521
0.228             -0.00839630639     -19.5728325      -74.2397191      72.1242638      -74.2397191      72.1242638   -0.00844395127     -19.5734695
0.23              -0.00846663459     -19.7447502      -74.1502591      71.9293233      -74.1502591      71.9293233    -0.0085151316     -19.7454008
0.232             -0.00853623197     -19.9166629      -74.0614158      71.7336976      -74.0614158      71.7336976   -0.00858622811     -19.9173344
0.234             -0.00860573193     -20.0885798      -73.9731769      71.5373761      -73.9731769      71.5373761   -0.00865725271     -20.0892713
0.236             -0.00867653881     -20.2605141      -73.8855311      71.3403418      -73.8855311      71.3403418   -0.00872830415     -20.2612132
0.238             -0.00874767341     -20.4324561      -73.7984699      71.1426079      -73.7984699      71.1426079   -0.00879938534     -20.4331603
0.24              -0.00881883889     -20.6044025      -73.7119836      70.9441688      -73.7119836      70.9441688    -0.0088714816     -20.6051211
0.242             -0.00888934801     -20.7763444      -73.6260663      70.7450507      -73.6260663      70.7450507   -0.00894352992     -20.7770845
0.244             -0.00895978766     -20.9482907      -73.5407072      70.5452439      -73.5407072      70.5452439   -0.00901553472     -20.9490517
0.246             -0.00903147947     -21.1202543      -73.4558963      70.3447337      -73.4558963      70.3447337   -0.00908759281     -21.1210241
0.248             -0.00910350406     -21.2922258      -73.3716262      70.1435324      -73.3716262      70.1435324   -0.00915970718      -21.293002
0.25              -0.00917558312     -21.4642021      -73.2878886      69.9416355      -73.2878886      69.9416355    -0.0092328034     -21.4649935
0.252             -0.00924707442     -21.6361743      -73.2046783      69.7390679      -73.2046783      69.7390679   -0.00930588577     -21.6369879
0.254              -0.0093185231     -21.8081511      -73.1219859      69.5358206      -73.1219859      69.5358206   -0.00937895215     -21.8089864
0.256             -0.00939117607      -21.980145      -73.0398026      69.3318811      -73.0398026      69.3318811    -0.0094520975     -21.9809903
0.258             -0.00946416805     -22.1521471      -72.9581218      69.1272606      -72.9581218      69.1272606   -0.00952532492     -22.1530002
0.26              -0.00953723747     -22.3241544      -72.8769363      68.9219561      -72.8769363      68.9219561    -0.0095995059     -22.3250235
0.262             -0.00960978275     -22.4961579      -72.7962417      68.7159909      -72.7962417      68.7159909   -0.00967370567       -22.49705
0.264             -0.00968231141     -22.6681662      -72.7160295      68.5093571      -72.7160295      68.5093571   -0.00974791627     -22.6690809
0.266              -0.0097560025     -22.8401917       -72.636292      68.3020436       -72.636292      68.3020436   -0.00982223096     -22.8411176
0.268             -0.00983003992     -23.0122254      -72.5570234      68.0940612      -72.5570235      68.0940612   -0.00989665295     -23.0131604
0.27               -0.0099041773     -23.1842647      -72.4782174      67.8854078      -72.4782174      67.8854078   -0.00997200458     -23.1852166
0.272             -0.00997784993     -23.3563007      -72.3998702      67.6761057      -72.3998702      67.6761057    -0.0100474064     -23.3572763
0.274              -0.0100515313     -23.5283418      -72.3219742      67.4661474      -72.3219742      67.4661474    -0.0101228454     -23.5293407
0.276              -0.0101263386     -23.7004001      -72.2445224      67.2555237      -72.2445224      67.2555237    -0.0101984132     -23.7014111
0.278              -0.0102015006     -23.8724671      -72.1675099      67.0442447      -72.1675099      67.0442447     -0.010274113     -23.8734879
0.28               -0.0102767848     -24.0445399       -72.090931      66.8323094       -72.090931      66.8323094    -0.0103507226     -24.0455782
0.282              -0.0103516596     -24.2166091      -72.0147826      66.6197393      -72.0147826      66.6197393    -0.0104274127     -24.2176722
0.284              -0.0104265676     -24.3886826       -71.939058      66.4065277       -71.939058      66.4065277    -0.0105041659      -24.389771
0.286              -0.0105025696     -24.5607731      -71.8637508      66.1926667      -71.8637508      66.1926667    -0.0105810723     -24.5618763
0.288              -0.0105789358     -24.7328727      -71.7888564      65.9781653      -71.7888564      65.9781653    -0.0106581353     -24.7339882
0.29               -0.0106554463     -24.9049792      -71.7143698      65.7630234      -71.7143698      65.7630234    -0.0107360915     -24.9061136
0.292              -0.0107316005     -25.0770835      -71.6402884      65.5472613      -71.6402884      65.5472613    -0.0108141579     -25.0782428
0.294              -0.0108078123     -25.2491929      -71.5666061      65.3308732      -71.5666061      65.3308732    -0.0108923131     -25.2503773
0.296              -0.0108850908     -25.4213192      -71.4933173      65.1138528      -71.4933173      65.1138528    -0.0109706456     -25.4225184
0.298              -0.0109627433     -25.5934545      -71.4204179      64.8962088      -71.4204179      64.8962088    -0.0110491591     -25.5946664
0.3                -0.0110405617     -25.7655961      -71.3479035      64.6779422      -71.3479035      64.6779422    -0.0111285523     -25.7668279
0.302              -0.0111180733     -25.9377352      -71.2757719      64.4590723      -71.2757719      64.4590723    -0.0112080849     -25.9389935
0.304              -0.0111956668     -26.1098798      -71.2040174      64.2395936      -71.2040174      64.2395936    -0.0112877317     -26.1111645
0.306              -0.0112743032     -26.2820416       -71.132635      64.0195008       -71.132635      64.0195008      -0.01136758     -26.2833425
0.308              -0.0113533249     -26.4542126       -71.061621      63.7988022       -71.061621      63.7988022    -0.0114476333     -26.4555276
0.31               -0.0114325341     -26.6263903      -70.9909716      63.5774997      -70.9909716      63.5774997    -0.0115285561     -26.6277262
0.312               -0.011511484     -26.7985658      -70.9206848      63.3556121      -70.9206848      63.3556121    -0.0116096467     -26.7999291
0.314              -0.0115905396     -26.9707469      -70.8507553      63.1331339      -70.8507553      63.1331339    -0.0116908769     -26.9721378
0.316               -0.011670618     -27.1429453      -70.7811788      62.9100613      -70.7811788      62.9100613    -0.0117723326     -27.1443536
0.318              -0.0117510934     -27.3151531      -70.7119519      62.6864021      -70.7119519      62.6864021    -0.0118540177     -27.3165768
0.32               -0.0118317782     -27.4873679       -70.643071      62.4621588       -70.643071      62.4621588    -0.0119365644     -27.4888136
0.322               -0.011912249     -27.6595808      -70.5745347      62.2373497      -70.5745347      62.2373497     -0.012019307     -27.6610548
0.324              -0.0119928492     -27.8317993      -70.5063381      62.0119696      -70.5063381      62.0119696    -0.0121022145      -27.833302
0.326              -0.0120744553     -28.0040353      -70.4384771      61.7860157      -70.4384771      61.7860157    -0.0121853718     -28.0055567
0.328               -0.012156471     -28.1762809      -70.3709486      61.5594955      -70.3709486      61.5594955    -0.0122687826     -28.1778189
0.33               -0.0122387178     -28.3485338      -70.3037497      61.3324121      -70.3037497      61.3324121    -0.0123530497     -28.3500948
0.332              -0.0123207943      -28.520785      -70.2368789      61.1047833      -70.2368789      61.1047833    -0.0124375405     -28.5223753
0.334               -0.012403024     -28.6930419      -70.1703317      60.8766042      -70.1703317      60.8766042    -0.0125222217     -28.6946621
0.336              -0.0124862452     -28.8653164      -70.1041045      60.6478731      -70.1041045      60.6478731    -0.0126071769     -28.8669565
0.338              -0.0125698895     -29.0376007      -70.0381945      60.4185968      -70.0381945      60.4185968      -0.01269241     -29.0392587
0.34               -0.0126537869     -29.2098926       -69.972599      60.1887794       -69.972599      60.1887794    -0.0127784961     -29.2115746
0.342              -0.0127375561     -29.3821829      -69.9073167       59.958438      -69.9073167       59.958438    -0.0128648337     -29.3838954
0.344               -0.012821502     -29.5544792      -69.8423436      59.7275678      -69.8423436      59.7275678    -0.0129513871     -29.5562226
0.346              -0.0129064281     -29.7267931      -69.7776761      59.4961683      -69.7776761      59.4961683    -0.0130382389     -29.7285577
0.348              -0.0129917914     -29.8991171      -69.7133119      59.2642458      -69.7133119      59.2642458    -0.0131253932     -29.9009008
0.35               -0.0130774297     -30.0714488      -69.6492485       59.031805      -69.6492485       59.031805    -0.0132133994     -30.0732577
0.352              -0.0131629807     -30.2437793      -69.5854848      58.7988626      -69.5854848      58.7988626    -0.0133016846     -30.2456196
0.354              -0.0132487322     -30.4161158       -69.522017       58.565414       -69.522017       58.565414    -0.0133902114     -30.4179882
0.356              -0.0133354548       -30.58847      -69.4588419      58.3314595      -69.4588419      58.3314595    -0.0134790611     -30.5903648
0.358              -0.0134226293     -30.7608346      -69.3959573      58.0970051      -69.3959573      58.0970051     -0.013568238     -30.7627497
0.36               -0.0135101012     -30.9332071      -69.3333609      57.8620559      -69.3333609      57.8620559    -0.0136582676     -30.9351485
0.362              -0.0135975255     -31.1055785      -69.2710519      57.6266284      -69.2710519      57.6266284    -0.0137486038     -31.1075525
0.364              -0.0136851741      -31.277956      -69.2090267      57.3907182      -69.2090267      57.3907182    -0.0138392073     -31.2799632
0.366              -0.0137737868     -31.4503515      -69.1472824      57.1543261      -69.1472824      57.1543261    -0.0139301586     -31.4523823
0.368              -0.0138628672     -31.6227574      -69.0858168       56.917458      -69.0858168       56.917458    -0.0140214621     -31.6248098
0.37               -0.0139522673     -31.7951716      -69.0246279      56.6801196      -69.0246279      56.6801196    -0.0141136209     -31.7972514
0.372              -0.0140416585     -31.9675848      -68.9637151      56.4423268      -68.9637151      56.4423268    -0.0142061137     -31.9696983
0.374              -0.0141312981     -32.1400043       -68.903075      56.2040753       -68.903075      56.2040753       -0.0142989     -32.1421521
0.376              -0.0142218971     -32.3124418      -68.8427048       55.965367      -68.8427048       55.965367    -0.0143920592     -32.3146145
0.378              -0.0143129799     -32.4848899      -68.7826027      55.7262072      -68.7826027      55.7262072    -0.0144855958     -32.4870855
0.38               -0.0144044052     -32.6573465      -68.7227666      55.4866021      -68.7227666      55.4866021    -0.0145799921     -32.6595706
0.382              -0.0144958595     -32.8298024      -68.6631962      55.2465674      -68.6631962      55.2465674    -0.0146747499     -32.8320612
0.384              -0.0145875864     -33.0022646      -68.6038882      55.0060987      -68.6038882      55.0060987    -0.0147698274     -33.0045589
0.386              -0.0146802698     -33.1747449      -68.5448399      54.7651989      -68.5448399      54.7651989    -0.0148653034     -33.1770654
0.388               -0.014773454     -33.3472361      -68.4860498      54.5238726      -68.4860498      54.5238726    -0.0149611822     -33.3495806
0.39               -0.0148670037      -33.519736      -68.4275161      54.2821268      -68.4275161      54.2821268    -0.0150579265     -33.5221101
0.392              -0.0149606196     -33.6922352      -68.3692382      54.0399768      -68.3692382      54.0399768    -0.0151550601     -33.6946453
0.394              -0.0150545326     -33.8647409      -68.3112134      53.7974181      -68.3112134      53.7974181      -0.01525254     -33.8671877