! TOUCHSTONE file generated by CST MICROWAVE STUDIO
! Date and time: Sun Jun 29 11:36:11 2025
! Project name: ResonadorAnillo.cst
! Parameters = {Eeff=2.85062; Er=3.66; H=1.524; L1=44.4214; L2=44.4214; Landa=177.685; T=0.017; W=3.30928; Wa=3.30928; X=121.031; Y=121.031; c=3e+11; f=1e+09; r=28.2795; s=0.3}
! Header version: 2024
! Port assignment regex: !\s*Touchstone port\s*([0-9]+)\s*=\s*(CST MWS port|CST DES external port|CST DES block port)\s*(.+)\s* \(\"(.*)\"\)(\s*mode\s*([0-9]+))?.*
! Touchstone port assignment:
! Touchstone port 1 = CST MWS port 1 ("")
! Touchstone port 2 = CST MWS port 2 ("")
# GHz S DB R 50
0                 1.20051761e-05               0      -138.870844               0      -138.870843               0   1.19415645e-05               0
0.002            -0.000261247456    -0.254093561       -117.23058      89.6857491       -117.23058       89.685749  -0.000237183929    -0.254472957
0.004            -0.000525659052    -0.508209182      -112.629913      91.2531595      -112.629913      91.2531595   -0.00047754154    -0.508968632
0.006            -0.000788968908    -0.762317377       -109.31181      89.6847139       -109.31181      89.6847139  -0.000716768651    -0.763456629
0.008             -0.00105253648     -1.01642444      -106.851651      89.1437361      -106.851651      89.1437361  -0.000956262232     -1.01794338
0.01              -0.00131633118     -1.27053201      -104.918876      88.9104242      -104.918876      88.9104241   -0.00119598914     -1.27243055
0.012             -0.00147129875     -1.52404911      -103.332076      88.8013321      -103.332076      88.8013321   -0.00133406303     -1.52640836
0.014             -0.00159113828     -1.77775087      -101.983043      88.7209502      -101.983043      88.7209502   -0.00143923315     -1.78054242
0.016                -0.00176437     -2.03221276      -100.807582      88.6285776      -100.807582      88.6285775   -0.00159586638     -2.03533536
0.018             -0.00194716851     -2.28690584      -99.7676651       88.528074      -99.7676651       88.528074     -0.001762251      -2.2903284
0.02              -0.00212134582     -2.54136869      -98.8366067      88.4205234      -98.8366067      88.4205234   -0.00192110184     -2.54512349
0.022             -0.00223326073     -2.79520499      -97.9949187      88.3127889      -97.9949187      88.3127889   -0.00202193386     -2.79937246
0.024             -0.00232651437     -3.04900073      -97.2255146      88.1978454      -97.2255146      88.1978454    -0.0021057372     -3.05358585
0.026             -0.00247342192     -3.30327358      -96.5157264      88.0647405      -96.5157264      88.0647405   -0.00223937176     -3.30821634
0.028             -0.00263095759     -3.55763566      -95.8577169      87.9224017      -95.8577169      87.9224017   -0.00238307365     -3.56292595
0.03              -0.00278377717     -3.81189846       -95.244757      87.7742876       -95.244757      87.7742875   -0.00252266399     -3.81755097
0.032             -0.00289624285     -4.06584319      -94.6714268      87.6244678      -94.6714268      87.6244678   -0.00262534527     -4.07189415
0.034              -0.0029990857     -4.31978176      -94.1323056      87.4701341      -94.1323056      87.4701341   -0.00271938224     -4.32623161
0.036             -0.00313291178     -4.57398506       -93.622868      87.3084493       -93.622868      87.3084493   -0.00284185512     -4.58080187
0.038             -0.00327178886     -4.82823557       -93.140327       87.142376       -93.140327       87.142376   -0.00296909469     -4.83541493
0.04              -0.00340695521     -5.08243401      -92.6820763      86.9730597      -92.6820763      86.9730597   -0.00309310427     -5.08998474
0.042             -0.00351763887     -5.33646324      -92.2458763      86.8023002      -92.2458763      86.8023002   -0.00319501904     -5.34439982
0.044             -0.00362224799     -5.59048806      -91.8294028      86.6288156      -91.8294028      86.6288156   -0.00329155017     -5.59881042
0.046             -0.00374825744     -5.84468256      -91.4306165      86.4510803      -91.4306165      86.4510803   -0.00340752188     -5.85337409
0.048             -0.00387743904     -6.09890256      -91.0481895      86.2705867      -91.0481895      86.2705867   -0.00352646925      -6.1079624
0.05              -0.00400380528     -6.35308545      -90.6808388      86.0878847      -90.6808388      86.0878847   -0.00364298469     -6.36252043
0.052             -0.00411310005     -6.60716159      -90.3274312      85.9039273      -90.3274312      85.9039273   -0.00374422746     -6.61697438
0.054             -0.00421814231     -6.86123558      -89.9867624      85.7179541      -89.9867624      85.7179541    -0.0038417396     -6.87142558
0.056             -0.00433910797     -7.11542784      -89.6577431      85.5289715      -89.6577431      85.5289715   -0.00395363518     -7.12598862
0.058             -0.00446230792     -7.36963625      -89.3396466       85.337862      -89.3396466       85.337862   -0.00406762663     -7.38056893
0.06              -0.00458332361     -7.62381753      -89.0317538      85.1449321      -89.0317538      85.1449321   -0.00417974832     -7.63512742
0.062             -0.00469158425      -7.8779289      -88.7334149       84.950746      -88.7334149       84.950746   -0.00428053103     -7.88961008
0.064             -0.00479667007     -8.13203987      -88.4439308      84.7548013      -88.4439309      84.7548013   -0.00437855379      -8.1440913
0.066             -0.00491423823     -8.38623658      -88.1626556      84.5564047      -88.1626556      84.5564047   -0.00448780229     -8.39865945
0.068             -0.00503351198     -8.64044427      -87.8891506      84.3561257      -87.8891506      84.3561257   -0.00459865198     -8.65324111
0.07              -0.00515105417     -8.89463158       -87.622975      84.1541508       -87.622975      84.1541508   -0.00470803358     -8.90780664
0.072             -0.00525861815     -9.14877356      -87.3637218      83.9508415      -87.3637218      83.9508415   -0.00480859163     -9.16231415
0.074             -0.00536370807     -9.40291658       -87.110953      83.7458443       -87.110953      83.7458443   -0.00490701725     -9.41682122
0.076              -0.0054789492      -9.6571228      -86.8642573       83.538654      -86.8642573       83.538654   -0.00501454157     -9.67139885
0.078             -0.00559556801     -9.91133678      -86.6233503      83.3296615      -86.6233503      83.3296615   -0.00512336113     -9.92598786
0.08              -0.00571079054     -10.1655352      -86.3879436      83.1189887      -86.3879436      83.1189887   -0.00523100895     -10.1805648
0.082             -0.00581795302     -10.4197062      -86.1577653      82.9068809      -86.1577653      82.9068809   -0.00533156114     -10.4350959
0.084             -0.00592312914     -10.6738795      -85.9325256      82.6930799      -85.9325256      82.6930799   -0.00543041544     -10.6896274
0.086             -0.00603678905     -10.9280993       -85.711949      82.4772061       -85.711949      82.4772061   -0.00553685515      -10.944218
0.088             -0.00615160922     -11.1823247      -85.4958409      82.2595413      -85.4958409      82.2595413   -0.00564438787     -11.1988188
0.09              -0.00626528954     -11.4365382       -85.284003        82.04017       -85.284003        82.04017   -0.00575097472     -11.4534106
0.092             -0.00637230472      -11.690738      -85.0762443      81.8192664      -85.0762443      81.8192664   -0.00585171603     -11.7079652
0.094             -0.00647769084     -11.9449413      -84.8723653      81.5966375      -84.8723653      81.5966375    -0.0059510764      -11.962521
0.096             -0.00659031867     -12.1991782      -84.6721746      81.3719924      -84.6721746      81.3719924   -0.00605690054     -12.2171277
0.098              -0.0067039557     -12.4534191       -84.475533      81.1455423       -84.475533      81.1455423   -0.00616367763     -12.4717437
0.1               -0.00681665486      -12.707651      -84.2822989      80.9173493      -84.2822989      80.9173493   -0.00626968621     -12.7263532
0.102             -0.00692374355     -12.9618804      -84.0923328      80.6875415      -84.0923328      80.6875415   -0.00637078991     -12.9809321
0.104             -0.00702947583     -13.2161144      -83.9054931      80.4559732      -83.9054931      80.4559732   -0.00647075356     -13.2355129
0.106             -0.00714149518     -13.4703716       -83.721643      80.2224187       -83.721643      80.2224187   -0.00657632295     -13.4901382
0.108             -0.00725441531     -13.7246315      -83.5406795      79.9870415      -83.5406795      79.9870415   -0.00668274508     -13.7447726
0.11              -0.00736656086     -13.9788847      -83.3624984      79.7498898      -83.3624984      79.7498898   -0.00678854167     -13.9994023
0.112             -0.00747391834     -14.2331449      -83.1869941      79.5110608      -83.1869941      79.5110608   -0.00689016365     -14.2540067
0.114             -0.00758013448     -14.4874107      -83.0140639      79.2704442      -83.0140639      79.2704442    -0.0069908349     -14.5086134
0.116              -0.0076918856     -14.7416909      -82.8436081      79.0278644      -82.8436081      79.0278644   -0.00709643888       -14.76326
0.118             -0.00780445805      -14.995973      -82.6755482       78.783451      -82.6755482       78.783451   -0.00720282238     -15.0179153
0.12              -0.00791639104     -15.2502504      -82.5098054      78.5372436      -82.5098054      78.5372436   -0.00730869836     -15.2725677
0.122             -0.00802419357     -15.5045428      -82.3462975      78.2893178      -82.3462975      78.2893178   -0.00741098125     -15.5271989
0.124             -0.00813102932     -15.7588418      -82.1849488       78.039591      -82.1849488       78.039591   -0.00751246656      -15.781833
0.126             -0.00824279561     -16.0131479      -82.0256855      77.7879265      -82.0256855      77.7879265   -0.00761834599     -16.0365031
0.128             -0.00835532434     -16.2674551      -81.8684462      77.5344295      -81.8684462      77.5344295   -0.00772495079      -16.291182
0.13              -0.00846732787     -16.5217592      -81.7131699      77.2791341      -81.7131699      77.2791341   -0.00783114767     -16.5458593
0.132             -0.00857573796     -16.7760855      -81.5597912      77.0221004      -81.5597912      77.0221004    -0.0079342245     -16.8005188
0.134             -0.00868332649     -17.0304195      -81.4082535      76.7632676      -81.4082536      76.7632676   -0.00803663076     -17.0551817
0.136             -0.00879535183      -17.284754      -81.2585017      76.5025306      -81.2585017      76.5025306   -0.00814299294     -17.3098777
0.138             -0.00890809592     -17.5390889      -81.1104865      76.2399759      -81.1104865      76.2399759   -0.00825004043     -17.5645824
0.14              -0.00902041335     -17.7934223      -80.9641599      75.9756342      -80.9641599      75.9756342   -0.00835676574     -17.8192869
0.142             -0.00912958388     -18.0477843      -80.8194686      75.7095541      -80.8194686      75.7095541    -0.0084607629     -18.0739763
0.144             -0.00923805634     -18.3021551      -80.6763699      75.4416927      -80.6763699      75.4416926   -0.00856419722     -18.3286697
0.146             -0.00935055693     -18.5565206      -80.5348223      75.1719699      -80.5348223      75.1719699   -0.00867122613     -18.5833937
0.148             -0.00946374419     -18.8108859      -80.3947856      74.9004587      -80.3947856      74.9004587     -0.008778911     -18.8381266
0.15              -0.00957659135      -19.065251      -80.2562213      74.6271871      -80.2562213      74.6271871   -0.00888634889     -19.0928603
0.152             -0.00968666883     -19.3196505      -80.1190849      74.3521948      -80.1190849      74.3521948   -0.00899138857     -19.3475813
0.154             -0.00979615537     -19.5740599      -79.9833441      74.0754535      -79.9833441      74.0754535   -0.00909595863     -19.6023068
0.156             -0.00990932801     -19.8284588      -79.8489679      73.7969046      -79.8489679      73.7969046   -0.00920382204     -19.8570611
0.158              -0.0100231644     -20.0828571      -79.7159224      73.5166094      -79.7159224      73.5166094   -0.00931232051     -20.1118243
0.16               -0.0101367381     -20.3372563      -79.5841765      73.2345945      -79.5841765      73.2345945   -0.00942063909     -20.3665893
0.162              -0.0102478652     -20.5916953      -79.4536923      72.9508926      -79.4536923      72.9508926   -0.00952684125     -20.6213437
0.164              -0.0103584961     -20.8461453      -79.3244454      72.6654874      -79.3244454      72.6654874   -0.00963265595     -20.8761031
0.166              -0.0104725242       -21.10058      -79.1964123       72.378338      -79.1964123       72.378338   -0.00974151059     -21.1308896
0.168              -0.0105872007     -21.3550137      -79.0695645      72.0894969      -79.0695645      72.0894969   -0.00985098621     -21.3856853
0.17               -0.0107016846     -21.6094493      -78.9438761       71.798989      -78.9438761       71.798989   -0.00996034282     -21.6404837
0.172              -0.0108140023     -21.8639298      -78.8193144      71.5068416      -78.8193144      71.5068416    -0.0100678268     -21.8952733
0.174              -0.0109259089     -22.1184223       -78.695861      71.2130485       -78.695861      71.2130485     -0.010174997     -22.1500683
0.176               -0.011040967     -22.3728952      -78.5734984      70.9175837      -78.5734984      70.9175837    -0.0102849924     -22.4048891
0.178              -0.0111566643     -22.6273666      -78.4522019      70.6204922      -78.4522019      70.6204922    -0.0103956003     -22.6597193
0.18               -0.0112722337      -22.881841      -78.3319497      70.3217978      -78.3319497      70.3217978    -0.0105061454      -22.914553
0.182              -0.0113858831     -23.1363649      -78.2127132      70.0215231      -78.2127132      70.0215231    -0.0106150312     -23.1693796
0.184              -0.0114991988      -23.390902      -78.0944787      69.7196702      -78.0944787      69.7196702    -0.0107236703      -23.424212
0.186               -0.011615456     -23.6454153      -77.9772331      69.4162264      -77.9772331      69.4162264    -0.0108349517     -23.6790691
0.188              -0.0117323484     -23.8999268      -77.8609549      69.1112297      -77.8609549      69.1112297    -0.0109468421     -23.9339359
0.19               -0.0118491733     -24.1544422      -77.7456254      68.8047034      -77.7456254      68.8047034    -0.0110587219     -24.1888069
0.192              -0.0119642967     -24.4090115      -77.6312194      68.4966656      -77.6312194      68.4966656    -0.0111691314     -24.4436722
0.194              -0.0120791582     -24.6635951      -77.5177264      68.1871259      -77.5177264      68.1871259    -0.0112793563     -24.6985438
0.196              -0.0121967806     -24.9181511      -77.4051373      67.8760827      -77.4051373      67.8760827    -0.0113920669     -24.9534392
0.198              -0.0123150388      -25.172705      -77.2934326      67.5635682      -77.2934326      67.5635682    -0.0115053871     -25.2083445
0.2                -0.0124332868     -25.4272636      -77.1825964      67.2496048      -77.1825964      67.2496048    -0.0116187463     -25.4632548
0.202              -0.0125500288     -25.6818803       -77.072606      66.9342072       -77.072606      66.9342072    -0.0117308041     -25.7181607
0.204              -0.0126665764     -25.9365124      -76.9634536      66.6173908      -76.9634536      66.6173908    -0.0118427355     -25.9730732
0.206              -0.0127857293     -26.1911133       -76.855133      66.2991639       -76.855133      66.2991639    -0.0119570182     -26.2280088
0.208              -0.0129055229     -26.4457118      -76.7476266      65.9795537      -76.7476266      65.9795537    -0.0120719149     -26.4829546
0.21               -0.0130253608     -26.7003159      -76.6409205      65.6585815      -76.6409205      65.6585815    -0.0121868981     -26.7379061
0.212              -0.0131438699     -26.9549819      -76.5349939      65.3362589      -76.5349939      65.3362589    -0.0123007324     -26.9928543
0.214              -0.0132622485     -27.2096645      -76.4298414      65.0126064      -76.4298414      65.0126064    -0.0124144954     -27.2478095
0.216               -0.013383098     -27.4643124       -76.325459       64.687641       -76.325459       64.687641    -0.0125304944     -27.5027872
0.218              -0.0135045967     -27.7189578      -76.2218306      64.3613852      -76.2218306      64.3613852     -0.012647115     -27.7577754
0.22               -0.0136261926     -27.9736094      -76.1189439      64.0338594      -76.1189439      64.0338594    -0.0127638682     -28.0127699
0.222              -0.0137466214     -28.2283267      -76.0167797      63.7050722      -76.0167797      63.7050722    -0.0128796115     -28.2677622
0.224              -0.0138669808     -28.4830617      -75.9153344      63.3750485      -75.9153344      63.3750485    -0.0129953363     -28.5227618
0.226              -0.0139896952     -28.7377589      -75.8146058      63.0438131      -75.8146058      63.0438131     -0.013113198     -28.7777835
0.228              -0.0141130708     -28.9924531      -75.7145789       62.711384      -75.7145789       62.711384    -0.0132316922      -29.032816
0.23               -0.0142365952     -29.2471545      -75.6152429      62.3777808      -75.6152429      62.3777808    -0.0133503638     -29.2878553
0.232              -0.0143591011      -29.501925      -75.5165799      62.0430094      -75.5165799      62.0430094    -0.0134681533     -29.5428934
0.234               -0.014481597     -29.7567144      -75.4185875      61.7070984      -75.4185875      61.7070984    -0.0135859755     -29.7979393
0.236               -0.014606348     -30.0114628      -75.3212651      61.3700794      -75.3212651      61.3700794    -0.0137058498     -30.0530067
0.238              -0.0147317751     -30.2662081      -75.2245986      61.0319664      -75.2245986      61.0319664    -0.0138263701     -30.3080853
0.24               -0.0148574018     -30.5209611      -75.1285783      60.6927781      -75.1285783      60.6927781    -0.0139471121     -30.5631714
0.242               -0.014982148     -30.7757867      -75.0331875      60.3525178      -75.0331875      60.3525178    -0.0140670904      -30.818257
0.244              -0.0151069421     -31.0306324      -74.9384247      60.0112175      -74.9384247      60.0112175    -0.0141871515     -31.0733507
0.246              -0.0152339052     -31.2854341      -74.8442906      59.6689146      -74.8442906      59.6689146     -0.014309192     -31.3284658
0.248              -0.0153615625     -31.5402325      -74.7507719      59.3256195      -74.7507719      59.3256195    -0.0144318949     -31.5835922
0.25               -0.0154894698     -31.7950393      -74.6578597        58.98135      -74.6578597        58.98135    -0.0145548635     -31.8387268
0.252              -0.0156166253     -32.0499218      -74.5655382       58.636107      -74.5655382       58.636107     -0.014677179     -32.0938616
0.254              -0.0157438858     -32.3048256       -74.473807      58.2899252       -74.473807      58.2899252    -0.0147996265      -32.349005
0.256              -0.0158732416     -32.5596827      -74.3826673      57.9428474      -74.3826673      57.9428474    -0.0149239916     -32.6041694
0.258              -0.0160033125     -32.8145361      -74.2921068      57.5948806      -74.2921068      57.5948806     -0.015049038     -32.8593455
0.26               -0.0161336835     -33.0693985      -74.2021172      57.2460416      -74.2021172      57.2460416    -0.0151743939     -33.1145302
0.262              -0.0162634241     -33.3243398      -74.1126836       56.896329      -74.1126836       56.896329    -0.0152992008     -33.3697161
0.264               -0.016393326     -33.5793036       -74.023806      56.5457799       -74.023806      56.5457799    -0.0154241886     -33.6249107
0.266              -0.0165252605     -33.8342178      -73.9354866      56.1944418      -73.9354866      56.1944418    -0.0155510414     -33.8801262
0.268              -0.0166579337     -34.0891282      -73.8477135      55.8423186      -73.8477135      55.8423186    -0.0156785967     -34.1353538
0.27               -0.0167909572     -34.3440483       -73.760479      55.4894261       -73.760479      55.4894261    -0.0158065056     -34.3905904
0.272              -0.0169234652     -34.5990503      -73.6737689      55.1357608      -73.6737689      55.1357607    -0.0159339639      -34.645829
0.274              -0.0170561908     -34.8540763      -73.5875837      54.7813614      -73.5875837      54.7813614    -0.0160616518      -34.901077
0.276              -0.0171908964     -35.1090503      -73.5019262      54.4262794      -73.5019262      54.4262794    -0.0161911592     -35.1563458
0.278              -0.0173263667     -35.3640204      -73.4167849      54.0705162      -73.4167849      54.0705162    -0.0163213921      -35.411627
0.28               -0.0174622378     -35.6190007      -73.3321527      53.7140869      -73.3321527      53.7140869    -0.0164520228      -35.666918
0.282              -0.0175977025     -35.8740645      -73.2480162      53.3569869      -73.2480162      53.3569869    -0.0165822963     -35.9222108
0.284              -0.0177334401     -36.1291519      -73.1643762      52.9992571      -73.1643762      52.9992571    -0.0167128474     -36.1775122
0.286              -0.0178711135      -36.384184      -73.0812356      52.6409499      -73.0812356      52.6409499    -0.0168451721      -36.432834
0.288              -0.0180095804     -36.6392125      -72.9985835      52.2820647      -72.9985835      52.2820647    -0.0169782453      -36.688169
0.29               -0.0181484999     -36.8942534      -72.9164127      51.9226151      -72.9164127      51.9226151     -0.017111761     -36.9435151
0.292              -0.0182871186     -37.1493824      -72.8347105      51.5625943      -72.8347105      51.5625943    -0.0172450094      -37.198865
0.294               -0.018426067     -37.4045372      -72.7534783      51.2020455      -72.7534783      51.2020455    -0.0173785837     -37.4542242
0.296              -0.0185669155     -37.6596345      -72.6727179      50.8410255      -72.6727179      50.8410255    -0.0175138705     -37.7096035
0.298              -0.0187085879     -37.9147271      -72.5924199      50.4795318      -72.5924199      50.4795318    -0.0176499239     -37.9649955
0.3                -0.0188507639     -38.1698309      -72.5125782      50.1175779      -72.5125782      50.1175779    -0.0177864624     -38.2203976
0.302              -0.0189927396     -38.4250243      -72.4331802      49.7551544      -72.4331802      49.7551544    -0.0179228208      -38.475803
0.304               -0.019135102     -38.6802451      -72.3542272      49.3923048      -72.3542272      49.3923048    -0.0180595525     -38.7312181
0.306              -0.0192793361     -38.9354063      -72.2757214      49.0291111      -72.2757214      49.0291111    -0.0181980198     -38.9866519
0.308              -0.0194244274     -39.1905629      -72.1976537      48.6655518      -72.1976537      48.6655518    -0.0183372939     -39.2420974
0.31               -0.0195700746     -39.4457313      -72.1200183      48.3016347      -72.1200183      48.3016347    -0.0184770985      -39.497552
0.312              -0.0197156195     -39.7009917      -72.0428033      47.9373484      -72.0428033      47.9373484    -0.0186168078     -39.7530098
0.314              -0.0198616081     -39.9562809      -71.9660097      47.5727365      -71.9660097      47.5727365    -0.0187569407     -40.0084783
0.316              -0.0200094468      -40.211508      -71.8896439      47.2078766      -71.8896439      47.2078766    -0.0188988931     -40.2639673
0.318              -0.0201581781     -40.4667303      -71.8136942      46.8427501      -71.8136942      46.8427501     -0.019041712       -40.51947
0.32               -0.0203075184      -40.721965      -71.7381539      46.4773652      -71.7381539      46.4773652    -0.0191851136      -40.774984
0.322              -0.0204568515     -40.9772939      -71.6630113      46.1117092      -71.6630113      46.1117092    -0.0193285039     -41.0305027
0.324               -0.020606686     -41.2326528      -71.5882678      45.7458272      -71.5882678      45.7458272     -0.019472372     -41.2860321
0.326               -0.020758355     -41.4879474      -71.5139282      45.3797829      -71.5139282      45.3797829    -0.0196179578     -41.5415824
0.328              -0.0209109542      -41.743237      -71.4399821      45.0135679      -71.4399821      45.0135679    -0.0197644228     -41.7971472
0.33               -0.0210642164     -41.9985395      -71.3664235      44.6471935      -71.3664235      44.6471935    -0.0199115191     -42.0527245
0.332              -0.0212175641     -42.2539384       -71.293241      44.2806455       -71.293241      44.2806455    -0.0200586839     -42.3083071
0.334              -0.0213714718     -42.5093684      -71.2204362        43.91397      -71.2204362        43.91397    -0.0202063777     -42.5639004
0.336               -0.021527204      -42.764732      -71.1480127      43.5472379      -71.1480127      43.5472379    -0.0203557611     -42.8195139
0.338               -0.021683906     -43.0200904      -71.0759612      43.1804352      -71.0759612      43.1804352    -0.0205060537     -43.0751415
0.34               -0.0218413259      -43.275462      -71.0042762      42.8135713      -71.0042762      42.8135713    -0.0206570254     -43.3307812
0.342              -0.0219989222     -43.5309321      -70.9329466      42.4466304      -70.9329466      42.4466304    -0.0208081446     -43.5864264
0.344              -0.0221571376     -43.7864346      -70.8619738       42.079659      -70.8619738      42.0796589    -0.0209598443     -43.8420826
0.346              -0.0223171729     -44.0418686      -70.7913613      41.7127331      -70.7913613      41.7127331    -0.0211132376     -44.0977589
0.348              -0.0224782195     -44.2972971      -70.7211003      41.3458347      -70.7211003      41.3458347    -0.0212675786     -44.3534494
0.35               -0.0226400399     -44.5527394      -70.6511852      40.9789715      -70.6511852      40.9789715    -0.0214226481     -44.6091523
0.352              -0.0228021258      -44.808282      -70.5816053      40.6121263      -70.5816053      40.6121263    -0.0215779426     -44.8648608
0.354              -0.0229648909     -45.0638583      -70.5123618      40.2453459      -70.5123618      40.2453459      -0.02173387     -45.1205806
0.356              -0.0231294759     -45.3193638      -70.4434584      39.8787098      -70.4434584      39.8787098    -0.0218914983     -45.3763205
0.358              -0.0232951157     -45.5748639      -70.3748863      39.5121971      -70.3748863      39.5121971    -0.0220501146     -45.6320748
0.36                -0.023461586      -45.830378      -70.3066399      39.1458143      -70.3066399      39.1458143    -0.0222095098     -45.8878417
0.362              -0.0236284097     -46.0859943      -70.2387089      38.7795429      -70.2387089      38.7795429    -0.0223692066     -46.1436146
0.364              -0.0237959734     -46.3416455      -70.1710945      38.4134297      -70.1710945      38.4134297    -0.0225295895      -46.399399
0.366              -0.0239653615      -46.597224         -70.1038      38.0475573         -70.1038      38.0475573    -0.0226916828     -46.6552035
0.368              -0.0241358496     -46.8527967       -70.036817      37.6819022       -70.036817      37.6819022    -0.0228548056     -46.9110226
0.37                -0.024307226      -47.108384      -69.9701399        37.31647      -69.9701399        37.31647    -0.0230187588     -47.1668545
0.372              -0.0244790424      -47.364075      -69.9037587      36.9512407      -69.9037587      36.9512407    -0.0231830892     -47.4226929
0.374              -0.0246516603     -47.6198022      -69.8376743      36.5862615      -69.8376743      36.5862615      -0.02334816     -47.6785427
0.376              -0.0248261113     -47.8754547      -69.7718901      36.2216172      -69.7718901      36.2216172    -0.0235149532     -47.9344128
0.378              -0.0250017092     -48.1311014      -69.7063976      35.8572822      -69.7063976      35.8572822    -0.0236828188     -48.1902976
0.38               -0.0251782542     -48.3867628      -69.6411914      35.4932611      -69.6411914      35.4932611    -0.0238515672     -48.4461956
0.382              -0.0253553245     -48.6425297      -69.5762618      35.1295327      -69.5762618      35.1295327    -0.0240207678     -48.7021002
0.384              -0.0255332587     -48.8983338      -69.5116094      34.7661442      -69.5116094      34.7661442    -0.0241907639     -48.9580165
0.386              -0.0257130387     -49.1540615      -69.4472373      34.4031826      -69.4472373      34.4031826    -0.0243624974      -49.213953
0.388               -0.025894014      -49.409783      -69.3831374      34.0406201      -69.3831374      34.0406201    -0.0245353475     -49.4699044
0.39               -0.0260759962     -49.6655198      -69.3193043      33.6784607      -69.3193043      33.6784607    -0.0247091339     -49.7258693
0.392              -0.0262585874     -49.9213633      -69.2557283      33.3166818      -69.2557283      33.3166818    -0.0248834469      -49.981841
0.394              -0.0264421056     -50.1772453      -69.1924101      32.9553306      -69.1924101      32.9553306    -0.0250586114     -50.2378246