! TOUCHSTONE file generated by CST MICROWAVE STUDIO
! Date and time: Sun Jun 29 15:04:30 2025
! Project name: ResonadorAnillo.cst
! Parameters = {Eeff=3.2499; Er=4.3; H=1.56; L1=27.7354; L2=27.7354; Landa=110.942; T=0.035; W=2.85151; Wa=2.85151; X=76.5793; Y=76.5793; c=3e+11; f=1.5e+09; r=17.6569; s=0.3}
! Header version: 2024
! Port assignment regex: !\s*Touchstone port\s*([0-9]+)\s*=\s*(CST MWS port|CST DES external port|CST DES block port)\s*(.+)\s* \(\"(.*)\"\)(\s*mode\s*([0-9]+))?.*
! Touchstone port assignment:
! Touchstone port 1 = CST MWS port 1 ("")
! Touchstone port 2 = CST MWS port 2 ("")
# GHz S DB R 50
0                 1.05827117e-05               0       -157.12106             180       -157.12106             180    1.0869793e-05               0
0.002            -0.000411500884    -0.171959486      -115.188959      89.5297034      -115.188959      89.5297034  -0.000415859613    -0.172164952
0.004            -0.000827991488    -0.343915355      -109.160219      89.4527216      -109.160219      89.4527216   -0.00083662926    -0.344325874
0.006             -0.00124444279    -0.515871639      -105.636073      89.3052389      -105.636073      89.3052389   -0.00125736376    -0.516487289
0.008             -0.00166092917    -0.687828741      -103.136492      89.1487373      -103.136492      89.1487373   -0.00167813567    -0.688649587
0.01              -0.00207750863    -0.859786978      -101.198027      88.9939862      -101.198027      88.9939862    -0.0020990015    -0.860813082
0.012             -0.00241381718     -1.03136284      -99.6175524      88.8733502      -99.6175524      88.8733502   -0.00244015658     -1.03257531
0.014             -0.00272450667     -1.20305851      -98.2797575      88.7578721      -98.2797575      88.7578721    -0.0027559293     -1.20446231
0.016             -0.00308015166     -1.37525423      -97.1173773      88.6273934      -97.1173773      88.6273934   -0.00311484785     -1.37687745
0.018             -0.00344570609     -1.54760292      -96.0912634      88.4963941      -96.0912634      88.4963941   -0.00348283793     -1.54945348
0.02              -0.00380644638     -1.71980316      -95.1741444      88.3690943      -95.1741444      88.3690943   -0.00384555854     -1.72187242
0.022             -0.00412281728     -1.89158964      -94.3462586      88.2529634      -94.3462586      88.2529634   -0.00416383945     -1.89386384
0.024             -0.00442723592        -2.06335      -93.5902016      88.1394345      -93.5902016      88.1394345   -0.00446981876     -2.06583066
0.026             -0.00476645419     -2.23543229      -92.8928684      88.0184189      -92.8928684      88.0184189   -0.00481157621     -2.23811792
0.028             -0.00511263952     -2.40757726      -92.2466051      87.8963372      -92.2466051      87.8963372   -0.00516048311     -2.41046721
0.03              -0.00545583546     -2.57965965      -91.6447936      87.7750141      -91.6447936      87.7750141   -0.00550629808     -2.58275285
0.032             -0.00577270371     -2.75153027      -91.0820913      87.6574815      -91.0820913      87.6574815   -0.00582502598      -2.7548315
0.034             -0.00608351342      -2.9233988      -90.5530881       87.540099      -90.5530881       87.540099   -0.00613750494     -2.92690827
0.036             -0.00641567134     -3.09544019      -90.0533902      87.4192859      -90.0533902      87.4192859   -0.00647192391     -3.09915655
0.038              -0.0067516685     -3.26751561      -89.5802202      87.2974238      -89.5802202      87.2974238   -0.00681027442     -3.27143743
0.04              -0.00708557565     -3.43956233        -89.13101      87.1751352        -89.13101      87.1751352   -0.00714645799     -3.44368754
0.042             -0.00740344125     -3.61149753      -88.7035814      87.0538217      -88.7035814      87.0538217   -0.00746615326       -3.615833
0.044             -0.00771769979     -3.78343066      -88.2956503      86.9318304      -88.2956503      86.9318304   -0.00778212736     -3.78797703
0.046              -0.0080468055      -3.9554779      -87.9052258      86.8072693      -87.9052258      86.8072693   -0.00811333392     -3.96022944
0.048             -0.00837851814      -4.1275455      -87.5310138      86.6814384      -87.5310138      86.6814384   -0.00844720146      -4.1324999
0.05               -0.0087088117     -4.29959374      -87.1717648      86.5546975      -87.1717648      86.5546975   -0.00877959498     -4.30474944
0.052             -0.00902814842     -4.47156743      -86.8263841      86.4278519      -86.8263841      86.4278519    -0.0091007502     -4.47693559
0.054             -0.00934515327     -4.64354029      -86.4936935      86.3000082      -86.4936935      86.3000082   -0.00941949897      -4.6491217
0.056             -0.00967332499     -4.81559719      -86.1726265      86.1700381      -86.1726265      86.1700381   -0.00974969203      -4.8213824
0.058               -0.010003509     -4.98766913      -85.8624799      86.0387585      -85.8624799      86.0387585    -0.0100819357     -4.99365501
0.06               -0.0103327476     -5.15972804      -85.5625548      85.9064118      -85.5625548      85.9064118    -0.0104131952     -5.16591321
0.062              -0.0106539899     -5.33173306      -85.2722235      85.7735203      -85.2722235      85.7735203    -0.0107362741     -5.33813233
0.064               -0.010973661     -5.50373824      -84.9908023      85.6395477      -84.9908023      85.6395477    -0.0110577317     -5.51035256
0.066              -0.0113022015     -5.67580933      -84.7176556      85.5037635      -84.7176556      85.5037635    -0.0113882638     -5.68262598
0.068              -0.0116324295     -5.84789277      -84.4523582      85.3667251      -84.4523582      85.3667251    -0.0117205124      -5.8549079
0.07               -0.0119620532     -6.01996739      -84.1944799      85.2286087      -84.1944799      85.2286087     -0.012052129     -6.02717976
0.072              -0.0122855832     -6.19200114      -83.9436259      85.0897774      -83.9436259      85.0897774    -0.0123775354     -6.19942884
0.074              -0.0126080408     -6.36403583       -83.699366      84.9498843       -83.699366      84.9498843    -0.0127018355     -6.37167999
0.076              -0.0129378231     -6.53612454      -83.4612924       84.808427      -83.4612924       84.808427    -0.0130336117     -6.54396945
0.078               -0.013269099     -6.70822411      -83.2291274      84.6658065      -83.2291274      84.6658065    -0.0133669034     -6.71626523
0.08               -0.0136000241     -6.88031787       -83.002587      84.5221549       -83.002587      84.5221549    -0.0136998248     -6.88855406
0.082              -0.0139261677     -7.05237962       -82.781405       84.377736       -82.781405       84.377736    -0.0140278989     -7.06083205
0.084              -0.0142515883     -7.22444298      -82.5652949      84.2323127      -82.5652949      84.2323127    -0.0143552278     -7.23311298
0.086              -0.0145832376      -7.3965521      -82.3539805      84.0855228      -82.3539805      84.0855228    -0.0146888942     -7.40542113
0.088              -0.0149162574     -7.56867121      -82.1472695      83.9376649      -82.1472695      83.9376649     -0.015023947     -7.57773411
0.09               -0.0152491211     -7.74078679      -81.9449642      83.7888404      -81.9449642      83.7888404    -0.0153588303     -7.75004244
0.092              -0.0155781556     -7.91287675      -81.7468751      83.6392458      -81.7468751      83.6392458    -0.0156898587     -7.92234927
0.094              -0.0159067248      -8.0849689      -81.5528031      83.4887119      -81.5528031      83.4887119    -0.0160204082     -8.09465987
0.096              -0.0162407129     -8.25710083      -81.3625538      83.3369687      -81.3625538      83.3369687    -0.0163564501     -8.26698898
0.098              -0.0165759899     -8.42924226      -81.1759875      83.1842433      -81.1759875      83.1842433    -0.0166937916     -8.43932181
0.1                 -0.016911265     -8.60138195      -80.9929608      83.0306145      -80.9929608      83.0306145    -0.0170311222     -8.61165182
0.102              -0.0172434293     -8.77350083      -80.8133329      82.8762314      -80.8133329      82.8762314    -0.0173653494     -8.78398797
0.104              -0.0175753261     -8.94562243      -80.6369609      82.7209692      -80.6369609      82.7209692    -0.0176993021     -8.95632868
0.106              -0.0179120243     -9.11777934      -80.4637039      82.5646209      -80.4637039      82.5646209    -0.0180380995      -9.1286808
0.108              -0.0182499559     -9.28994551      -80.2934564      82.4073625      -80.2934564      82.4073625    -0.0183781363     -9.30103577
0.11                -0.018588011     -9.46211138       -80.126111      82.2492552       -80.126111      82.2492552    -0.0187182908      -9.4733894
0.112               -0.018923514     -9.63426018      -79.9615591      82.0904135      -79.9615591      82.0904135    -0.0190559286     -9.64575567
0.114              -0.0192589063      -9.8064122      -79.7996958      81.9307429      -79.7996958      81.9307429    -0.0193934544     -9.81812728
0.116              -0.0195986174     -9.97859612      -79.6404166      81.7700818      -79.6404166      81.7700818    -0.0197353155      -9.9905043
0.118              -0.0199395238     -10.1507892      -79.4836395      81.6085678      -79.4836395      81.6085678    -0.0200783735     -10.1628835
0.12               -0.0202806576     -10.3229832      -79.3292813      81.4462488      -79.3292813      81.4462488    -0.0204216554     -10.3352626
0.122              -0.0206196852     -10.4951631      -79.1772564      81.2832128      -79.1772564      81.2832128    -0.0207628911     -10.5076599
0.124              -0.0209587296     -10.6673467       -79.027486      81.1193873       -79.027486      81.1193873    -0.0211041469     -10.6800635
0.126              -0.0213017079     -10.8395596      -78.8798913      80.9546444      -78.8798913      80.9546444    -0.0214493292     -10.8524672
0.128              -0.0216458554     -11.0117816      -78.7344068      80.7890922      -78.7344068      80.7890922    -0.0217956781     -11.0248725
0.13               -0.0219903182     -11.1840055       -78.590967      80.6227682       -78.590967      80.6227682    -0.0221423409     -11.1972788
0.132              -0.0223330379     -11.3562179      -78.4495021        80.45574      -78.4495021        80.45574    -0.0224873422     -11.3697084
0.134              -0.0226758806     -11.5284343      -78.3099525      80.2879512      -78.3099525      80.2879512    -0.0228324738     -11.5421449
0.136               -0.023022345      -11.700678       -78.172258      80.1192998       -78.172258      80.1192998    -0.0231811981     -11.7145771
0.138              -0.0233699612     -11.8729308       -78.036365      79.9498709       -78.036365      79.9498709    -0.0235310676     -11.8870104
0.14               -0.0237179682     -12.0451866      -77.9022209      79.7796937      -77.9022209      79.7796937    -0.0238813281     -12.0594455
0.142               -0.024064533     -12.2174327      -77.7697675      79.6088197      -77.7697675      79.6088197    -0.0242302477     -12.2319086
0.144               -0.024411311     -12.3896834      -77.6389594      79.4372047      -77.6389594      79.4372047    -0.0245793915     -12.4043794
0.146               -0.024761454     -12.5619596      -77.5097504      79.2647672      -77.5097504      79.2647672    -0.0249318514     -12.5768418
0.148              -0.0251127375     -12.7342451      -77.3820956      79.0915741      -77.3820956      79.0915741    -0.0252854416     -12.7493047
0.15               -0.0254644778     -12.9065344      -77.2559519      78.9176475      -77.2559519      78.9176475    -0.0256394901     -12.9217704
0.152              -0.0258150291     -13.0788158      -77.1312704      78.7430261      -77.1312704      78.7430261    -0.0259924689     -13.0942682
0.154              -0.0261658714     -13.2511021      -77.0080158      78.5676754      -77.0080158      78.5676754    -0.0263457533     -13.2667746
0.156              -0.0265198649     -13.4234126      -76.8861526      78.3915304      -76.8861526      78.3915304    -0.0267021219     -13.4392687
0.158              -0.0268749924     -13.5957325      -76.7656428      78.2146429      -76.7656428      78.2146429    -0.0270596106      -13.611763
0.16                -0.027230635      -13.768057      -76.6464506      78.0370294      -76.6464506      78.0370294    -0.0274176173     -13.7842608
0.162              -0.0275853043     -13.9403751      -76.5285336      77.8587182      -76.5285336      77.8587182    -0.0277747871     -13.9567948
0.164              -0.0279403325     -14.1126984       -76.411865      77.6796821       -76.411865      77.6796821    -0.0281323338      -14.129338
0.166              -0.0282983324     -14.2850449      -76.2964174      77.4998701      -76.2964174      77.4998701    -0.0284927682     -14.3018655
0.168               -0.028657463     -14.4574011      -76.1821578      77.3193213      -76.1821578      77.3193213    -0.0288543166     -14.4743929
0.17               -0.0290171607     -14.6297624      -76.0690563      77.1380474      -76.0690563      77.1380474    -0.0292164363     -14.6469244
0.172              -0.0293760711     -14.8021186      -75.9570758       76.956068      -75.9570758       76.956068     -0.029577921     -14.8194958
0.174              -0.0297354003     -14.9744805      -75.8461958      76.7733619      -75.8461958      76.7733619    -0.0299398466     -14.9920773
0.176              -0.0300975488     -15.1468646      -75.7363952      76.5898897      -75.7363952      76.5898897    -0.0303044916     -15.1646397
0.178              -0.0304608274     -15.3192586      -75.6276454      76.4056796      -75.6276454      76.4056796    -0.0306702475     -15.3372017
0.18               -0.0308247198     -15.4916584      -75.5199208      76.2207395      -75.5199208      76.2207395    -0.0310366231     -15.5097685
0.182              -0.0311879865     -15.6640543      -75.4131886       76.035081      -75.4131886       76.035081    -0.0314025408     -15.6823787
0.184              -0.0315517255     -15.8364561      -75.3074332      75.8486883      -75.3074332      75.8486883     -0.031768957     -15.8549998
0.186              -0.0319181531     -16.0088795      -75.2026388      75.6615314      -75.2026388      75.6615314    -0.0321379477     -16.0275988
0.188              -0.0322857119      -16.181313        -75.09878      75.4736294        -75.09878      75.4736294    -0.0325080487      -16.200197
0.19               -0.0326539268     -16.3537528      -74.9958347      75.2849862      -74.9958347      75.2849862    -0.0328788136     -16.3728007
0.192              -0.0330216575     -16.5261897      -74.8937739      75.0956071      -74.8937739      75.0956071    -0.0332492774     -16.5454509
0.194              -0.0333899083      -16.698633      -74.7925856        74.90548      -74.7925856        74.90548    -0.0336202923      -16.718113
0.196              -0.0337607348     -16.8710972      -74.6922584      74.7145833      -74.6922584      74.7145833    -0.0339937559     -16.8907502
0.198              -0.0341326948     -17.0435718      -74.5927694      74.5229277      -74.5927694      74.5229277    -0.0343683311     -17.0633862
0.2                -0.0345053489     -17.2160532      -74.4940997      74.3305137      -74.4940997      74.3305137    -0.0347436111     -17.2360281
0.202              -0.0348776434     -17.3885326       -74.396223      74.1373406       -74.396223      74.1373406      -0.03511873     -17.4087199
0.204              -0.0352505007     -17.5610187      -74.2991306      73.9433994      -74.2991306      73.9433994    -0.0354944485     -17.5814244
0.206              -0.0356258351     -17.7335253      -74.2028144      73.7486756      -74.2028144      73.7486756    -0.0358725057     -17.7541011
0.208              -0.0360023059     -17.9060425      -74.1072539      73.5531722      -74.1072539      73.5531722    -0.0362516775     -17.9267764
0.21               -0.0363795049     -18.0785671      -74.0124326      73.3568864      -74.0124326      73.3568864    -0.0366315921     -18.0994582
0.212              -0.0367564542     -18.2510904      -73.9183267       73.159812      -73.9183267       73.159812    -0.0370114717     -18.2721928
0.214              -0.0371340043     -18.4236208      -73.8249301      72.9619422      -73.8249301      72.9619422    -0.0373919957      -18.444941
0.216              -0.0375139446     -18.5961713      -73.7322376      72.7632686      -73.7322376      72.7632686     -0.037774762     -18.6176588
0.218              -0.0378950237     -18.7687326      -73.6402307      72.5637871      -73.6402307      72.5637871    -0.0381586473     -18.7903749
0.22               -0.0382768612     -18.9413018       -73.548895      72.3634914       -73.548895      72.3634914    -0.0385433108      -18.963098
0.222              -0.0386585463     -19.1138705      -73.4582087      72.1623703      -73.4582087      72.1623703    -0.0389280534     -19.1358768
0.224              -0.0390408654     -19.2864466      -73.3681682      71.9604185      -73.3681682      71.9604185    -0.0393134826     -19.3086701
0.226              -0.0394254967     -19.4590424      -73.2787706      71.7576326      -73.2787706      71.7576326    -0.0397010689     -19.4814304
0.228              -0.0398112686     -19.6316494      -73.1899992       71.554002      -73.1899992       71.554002    -0.0400897796     -19.6541888
0.23                -0.040197825     -19.8042647      -73.1018417      71.3495169      -73.1018417      71.3495169    -0.0404793021     -19.8269547
0.232              -0.0405843143     -19.9768803      -73.0142781      71.1441613      -73.0142781      71.1441613    -0.0408690075      -19.999779
0.234              -0.0409714664     -20.1495034      -72.9273068      70.9379308      -72.9273068      70.9379308    -0.0412594391     -20.1726188
0.236              -0.0413608594     -20.3221461      -72.8409272      70.7308265      -72.8409272      70.7308265    -0.0416519525     -20.3454231
0.238              -0.0417513932     -20.4948002      -72.7551242      70.5228313      -72.7551242      70.5228313    -0.0420455966     -20.5182253
0.24               -0.0421427332     -20.6674631      -72.6698873      70.3139324      -72.6698873      70.3139324    -0.0424400841     -20.6910354
0.242              -0.0425340809     -20.8401269      -72.5851987      70.1041091      -72.5851987      70.1041091    -0.0428348498     -20.8639065
0.244              -0.0429261148     -21.0127986      -72.5010584      69.8933579      -72.5010584      69.8933579    -0.0432303791     -21.0367941
0.246              -0.0433203237     -21.1854897      -72.4174679      69.6816839      -72.4174679      69.6816839     -0.043627923     -21.2096439
0.248              -0.0437156712     -21.3581925       -72.334414      69.4690642       -72.334414      69.4690642     -0.044026605     -21.3824912
0.25               -0.0441118421     -21.5309045      -72.2518881      69.2554834      -72.2518881      69.2554834    -0.0444261603     -21.5553469
0.252              -0.0445080851      -21.703618      -72.1698741       69.040917      -72.1698741       69.040917    -0.0448260816     -21.7282663
0.254               -0.044905033     -21.8763397      -72.0883742      68.8253626      -72.0883742      68.8253626    -0.0452268021      -21.901203
0.256              -0.0453040933     -22.0490809      -72.0073917      68.6088295      -72.0073917      68.6088295    -0.0456294775     -22.0740996
0.258              -0.0457042875     -22.2218339      -71.9269155      68.3912907      -71.9269155      68.3912907    -0.0460332987     -22.2469935
0.26               -0.0461053179     -22.3945967      -71.8469389      68.1727291      -71.8469389      68.1727291     -0.046438022     -22.4198963
0.262              -0.0465064755     -22.5673616       -71.767448      67.9531181       -71.767448      67.9531181    -0.0468431926     -22.5928652
0.264              -0.0469083519      -22.740135      -71.6884469      67.7324577      -71.6884469      67.7324577    -0.0472491966     -22.7658524
0.266              -0.0473122813     -22.9129278      -71.6099413       67.510763      -71.6099413       67.510763    -0.0476571019     -22.9387972
0.268              -0.0477173376     -23.0857329      -71.5319219       67.288005      -71.5319219       67.288005    -0.0480661618     -23.1117391
0.27               -0.0481232391     -23.2585483      -71.4543845      67.0641681      -71.4543845      67.0641681    -0.0484761516     -23.2846904
0.272              -0.0485293158     -23.4313664      -71.3773173      66.8392261      -71.3773173      66.8392261    -0.0488866645     -23.4577102
0.274              -0.0489361223     -23.6041936      -71.3007267      66.6131849      -71.3007267      66.6131849    -0.0492980442     -23.6307495
0.276              -0.0493449264     -23.7770405      -71.2246205      66.3860682      -71.2246205      66.3860682     -0.049711278     -23.8037443
0.278              -0.0497548504     -23.9499001      -71.1489919      66.1578498      -71.1489919      66.1578498    -0.0501256759     -23.9767361
0.28               -0.0501656276     -24.1227705      -71.0738389      65.9285199      -71.0738389      65.9285199    -0.0505410312     -24.1497375
0.282              -0.0505766227     -24.2956437      -70.9991524      65.6980593      -70.9991524      65.6980593    -0.0509569794     -24.3228093
0.284              -0.0509883571     -24.4685256       -70.924941      65.4664848       -70.924941      65.4664848    -0.0513738255     -24.4959007
0.286              -0.0514020402     -24.6414271      -70.8512143       65.233834      -70.8512143       65.233834    -0.0517924829      -24.668945
0.288              -0.0518168408      -24.814342      -70.7779679      65.0000895      -70.7779679      65.0000895     -0.052212316     -24.8419865
0.29               -0.0522325085     -24.9872692      -70.7052015       64.765254      -70.7052015       64.765254    -0.0526331353     -25.0150389
0.292              -0.0526484425      -25.160201       -70.632908      64.5293216       -70.632908      64.5293216    -0.0530546178     -25.1881648
0.294              -0.0530651352     -25.3331424      -70.5610979      64.2923279      -70.5610979      64.2923279    -0.0534770318     -25.3613119
0.296              -0.0534837424     -25.5061038      -70.4897825      64.0543326      -70.4897825      64.0543326    -0.0539012211     -25.5344101
0.298              -0.0539034756     -25.6790789      -70.4189589      63.8153369      -70.4189589      63.8153369    -0.0543265982     -25.7075046
0.3                -0.0543240995      -25.852066      -70.3486283       63.575365      -70.3486283       63.575365     -0.054752988     -25.8806096
0.302              -0.0547450476      -26.025058      -70.2787843      63.3344321      -70.2787843      63.3344321    -0.0551801057     -26.0537897
0.304              -0.0551667903     -26.1980606      -70.2094376      63.0925992      -70.2094376      63.0925992    -0.0556081894     -26.2269924
0.306              -0.0555904371     -26.3710836      -70.1405993      62.8499541      -70.1405993      62.8499541    -0.0560380184     -26.4001441
0.308              -0.0560152419     -26.5441211      -70.0722664      62.6065229      -70.0722664      62.6065229    -0.0564690509     -26.5732923
0.31               -0.0564409866     -26.7171715      -70.0044394      62.3623564      -70.0044394      62.3623564    -0.0569011261     -26.7464513
0.312              -0.0568671375     -26.8902276      -69.9371105      62.1174959      -69.9371105      62.1174959    -0.0573339941     -26.9196876
0.314              -0.0572941456     -27.0632949      -69.8702885      61.8720305      -69.8702885      61.8720305    -0.0577678637     -27.0929474
0.316              -0.0577230799     -27.2363831       -69.803982      61.6260765       -69.803982      61.6260765    -0.0582034543     -27.2661543
0.318              -0.0581532351     -27.4094864      -69.7381849      61.3796837      -69.7381849      61.3796837    -0.0586402667     -27.4393574
0.32               -0.0585844104     -27.5826033      -69.6728943      61.1329261      -69.6728943      61.1329261    -0.0590781535     -27.6125718
0.322              -0.0590161031     -27.7557266      -69.6080985       60.885865      -69.6080985       60.885865    -0.0595168971     -27.7858655
0.324               -0.059448747     -27.9288616      -69.5438014      60.6386085      -69.5438014      60.6386085    -0.0599566795     -27.9591837
0.326              -0.0598833731     -28.1020179      -69.4800063      60.3912891      -69.4800063      60.3912891    -0.0603981636     -28.1324471
0.328              -0.0603193136     -28.2751898       -69.416702      60.1439665       -69.416702      60.1439665    -0.0608408901     -28.3057065
0.33                -0.060756382     -28.4483758      -69.3538796      59.8967208      -69.3538796      59.8967208    -0.0612847236     -28.4789774
0.332              -0.0611941021     -28.6215687      -69.2915215      59.6496133      -69.2915215      59.6496133    -0.0617294762     -28.6523295
0.334              -0.0616328891     -28.7947737      -69.2296254      59.4027494      -69.2296254      59.4027494     -0.062175305     -28.8257073
0.336              -0.0620737358         -28.968      -69.1681882      59.1562535      -69.1681882      59.1562535    -0.0626228195     -28.9990283
0.338              -0.0625160048     -29.1412422      -69.1071928      58.9101702      -69.1071928      58.9101702    -0.0630715971      -29.172345
0.34               -0.0629595186     -29.3144987      -69.0466245      58.6645596      -69.0466245      58.6645596    -0.0635215136     -29.3456736
0.342              -0.0634038207     -29.4877623      -68.9864603      58.4194569      -68.9864603      58.4194569    -0.0639724077     -29.5190851
0.344               -0.063849304     -29.6610379      -68.9266927      58.1749389      -68.9266927      58.1749389    -0.0644244134     -29.6925234
0.346              -0.0642969199     -29.8343348      -68.8673141      57.9310963      -68.8673141      57.9310963    -0.0648780897     -29.8659029
0.348              -0.0647460544     -30.0076474      -68.8083038      57.6879362      -68.8083038      57.6879362    -0.0653330479     -30.0392779
0.35                -0.065196533     -30.1809744      -68.7496439       57.445478      -68.7496439       57.445478    -0.0657891736     -30.2126651
0.352              -0.0656479119     -30.3543083      -68.6913096      57.2037132      -68.6913096      57.2037132    -0.0662463304     -30.3861369
0.354              -0.0661005587      -30.527654      -68.6332915       56.962675      -68.6332915       56.962675    -0.0667046304     -30.5596365
0.356              -0.0665553821     -30.7010206      -68.5755815      56.7224103      -68.5755815      56.7224103    -0.0671645849     -30.7330754
0.358              -0.0670117862     -30.8744027      -68.5181593      56.4828817      -68.5181593      56.4828817    -0.0676258368     -30.9065096
0.36               -0.0674695961     -31.0477989       -68.461008      56.2440655       -68.461008      56.2440655     -0.068088281     -31.0799562
0.362              -0.0679283769     -31.2212019      -68.4041047       56.005911      -68.4041047       56.005911    -0.0685518038     -31.2534891
0.364              -0.0683884717     -31.3946164      -68.3474425       55.768413      -68.3474425       55.768413    -0.0690164974     -31.4270508
0.366              -0.0688507482     -31.5680513      -68.2910162      55.5315811      -68.2910162      55.5315811    -0.0694828285     -31.6005499
0.368              -0.0693146272     -31.7415015       -68.234809      55.2953469       -68.234809      55.2953469    -0.0699504696      -31.774044
0.37               -0.0697799341     -31.9149656      -68.1788085      55.0596583      -68.1788085      55.0596583    -0.0704193243     -31.9475509
0.372              -0.0702462434     -32.0884363      -68.1229961      54.8244386      -68.1229961      54.8244386    -0.0708893005     -32.1211456
0.374              -0.0707138764     -32.2619181      -68.0673693      54.5896624      -68.0673693      54.5896624    -0.0713604724     -32.2947702
0.376              -0.0711836702     -32.4354202      -68.0119279      54.3553159      -68.0119279      54.3553159    -0.0718332647     -32.4683304
0.378              -0.0716550595     -32.6089372      -67.9566599      54.1213235      -67.9566599      54.1213235    -0.0723073781     -32.6418854
0.38               -0.0721278714      -32.782468      -67.9015576      53.8876257      -67.9015576      53.8876257    -0.0727827248     -32.8154534
0.382              -0.0726016988     -32.9560053      -67.8466073      53.6541393      -67.8466073      53.6541393    -0.0732592329     -32.9891107
0.384              -0.0730768406     -33.1295535      -67.7918109      53.4208374      -67.7918109      53.4208374    -0.0737369604      -33.162799
0.386              -0.0735541264     -33.3031215      -67.7371755      53.1877002      -67.7371755      53.1877002    -0.0742162926     -33.3364212
0.388              -0.0740329924     -33.4767041       -67.682691      52.9546618       -67.682691      52.9546618    -0.0746969572     -33.5100379
0.39               -0.0745132653     -33.6503001       -67.628353        52.72167       -67.628353        52.72167    -0.0751788745      -33.683668
0.392              -0.0749945629     -33.8239023      -67.5741514      52.4886481      -67.5741514      52.4886481    -0.0756619916     -33.8573888
0.394              -0.0754771631     -33.9975156      -67.5200912      52.2555786      -67.5200912      52.2555786    -0.0761463521     -34.0311417