! TOUCHSTONE file generated by CST MICROWAVE STUDIO
! Date and time: Sun Jun 29 15:01:49 2025
! Project name: ResonadorAnillo.cst
! Parameters = {Eeff=3.2499; Er=4.3; H=1.56; L1=41.6031; L2=41.6031; Landa=166.413; T=0.035; W=2.85151; Wa=2.85151; X=113.143; Y=113.143; c=3e+11; f=1e+09; r=26.4854; s=0.3}
! Header version: 2024
! Port assignment regex: !\s*Touchstone port\s*([0-9]+)\s*=\s*(CST MWS port|CST DES external port|CST DES block port)\s*(.+)\s* \(\"(.*)\"\)(\s*mode\s*([0-9]+))?.*
! Touchstone port assignment:
! Touchstone port 1 = CST MWS port 1 ("")
! Touchstone port 2 = CST MWS port 2 ("")
# GHz S DB R 50
0                 2.61099943e-05               0      -144.062594             180      -144.062594             180    2.6241121e-05               0
0.002            -0.000611734282    -0.252999131       -118.55362      89.4095839       -118.55362      89.4095839   -0.00061450568    -0.252826808
0.004              -0.0012344325     -0.50598982      -112.484878      89.3598339      -112.484878      89.3598338   -0.00124008634     -0.50564636
0.006             -0.00185704929    -0.758981622      -108.948668      89.1701759      -108.948668      89.1701759   -0.00186560015    -0.758466972
0.008             -0.00247975029     -1.01197535      -106.444377      88.9626376      -106.444377      88.9626376   -0.00249119219     -1.01128943
0.01              -0.00310266213     -1.26497163      -104.504332      88.7603444      -104.504332      88.7603444   -0.00311697243     -1.26411436
0.012             -0.00361329687     -1.51740106       -102.92384      88.5995324       -102.92384      88.5995324   -0.00362068535     -1.51633245
0.014             -0.00408833585     -1.77001404       -101.58664      88.4520986       -101.58664      88.4520986   -0.00408557327     -1.76873902
0.016             -0.00462198555     -2.02338424       -100.42539      88.2987578       -100.42539      88.2987578   -0.00461936619     -2.02194642
0.018             -0.00516744168     -2.27699239       -99.400766       88.153975       -99.400766       88.153975   -0.00516856954     -2.27539795
0.02              -0.00570501036     -2.53038889      -98.4852893      88.0216104      -98.4852893      88.0216104   -0.00571069378     -2.52861218
0.022             -0.00618198264     -2.78320436      -97.6590245      87.9085161      -97.6590245      87.9085161   -0.00618614503     -2.78117951
0.024             -0.00664170164     -3.03598999       -96.904475       87.805578       -96.904475       87.805578   -0.00664387892      -3.0337112
0.026             -0.00714552827     -3.28916462      -96.2059053      87.7035138      -96.2059052      87.7035138   -0.00715286942     -3.28673081
0.028              -0.0076568683     -3.54239563      -95.5565388      87.6067079      -95.5565388      87.6067079   -0.00767206785     -3.53984707
0.03              -0.00816263842     -3.79551291      -94.9501361      87.5157332      -94.9501361      87.5157332   -0.00818680445     -3.79287001
0.032             -0.00862630393       -4.048311       -94.381243      87.4328335       -94.381243      87.4328335   -0.00866217809     -4.04558306
0.034             -0.00907962887     -4.30109993      -93.8443853      87.3532523      -93.8443853      87.3532523   -0.00912855073     -4.29829566
0.036             -0.00957812107     -4.55423075      -93.3389255       87.263083      -93.3389255       87.263083   -0.00962794529     -4.55126711
0.038              -0.0100863103     -4.80744201      -92.8600561      87.1699193      -92.8600561      87.1699193    -0.0101335278     -4.80428974
0.04               -0.0105921948     -5.06062291      -92.4044394      87.0757832      -92.4044394      87.0757832    -0.0106362218     -5.05726895
0.042              -0.0110709295     -5.31364113      -91.9699196      86.9816808      -91.9699196      86.9816808     -0.011114685     -5.31009402
0.044              -0.0115446425     -5.56666096      -91.5542406      86.8851995      -91.5542406      86.8851995    -0.0115879758     -5.56291968
0.046              -0.0120407079     -5.81982513       -91.154902      86.7874794       -91.154902      86.7874794    -0.0120843806     -5.81591064
0.048              -0.0125410457     -6.07301449      -90.7709588      86.6871035      -90.7709588      86.6871035    -0.0125851538     -6.06893154
0.05               -0.0130397168      -6.3261769      -90.4013107      86.5832497      -90.4013107      86.5832497    -0.0130841381     -6.32192405
0.052              -0.0135226422     -6.57925536      -90.0448805      86.4763664      -90.0448805      86.4763664    -0.0135667786     -6.57482436
0.054                -0.01400258     -6.83233733      -89.7005474      86.3651972      -89.7005474      86.3651972    -0.0140462653     -6.82772778
0.056              -0.0144996148     -7.08552849      -89.3671323      86.2488598      -89.3671323      86.2488598      -0.01454327     -7.08074644
0.058              -0.0150001349     -7.33873952      -89.0440728      86.1275448      -89.0440728      86.1275448    -0.0150437853     -7.33378631
0.06               -0.0154997495     -7.59193278      -88.7307462      86.0011594      -88.7307462      86.0011594    -0.0155432919     -7.58680799
0.062               -0.015988011     -7.84507306      -88.4265507      85.8700492      -88.4265507      85.8700492    -0.0160310643     -7.83977427
0.064              -0.0164744621     -8.09821875      -88.1308599      85.7335074      -88.1308599      85.7335074    -0.0165168981     -8.09274578
0.066              -0.0169746666     -8.35144499      -87.8430178      85.5908138      -87.8430178      85.5908138    -0.0170167539     -8.34580095
0.068              -0.0174779251      -8.6046871      -87.5626825      85.4423356      -87.5626825      85.4423356    -0.0175196607     -8.59887264
0.07               -0.0179808283     -8.85791818       -87.289478      85.2881524       -87.289478      85.2881524    -0.0180221222     -8.85193308
0.072              -0.0184752564     -9.11111964      -87.0230326      85.1285816      -87.0230326      85.1285816    -0.0185158266     -9.10496291
0.074              -0.0189686547     -9.36432817      -86.7629684      84.9632456      -86.7629684      84.9632456    -0.0190083941     -9.35799982
0.076              -0.0194735268     -9.61759647      -86.5088868      84.7916673      -86.5088868      84.7916673    -0.0195126283     -9.61109852
0.078               -0.019981195     -9.87087798      -86.2605638      84.6142407      -86.2605638      84.6142407    -0.0200196435     -9.86421094
0.08               -0.0204889188     -10.1241534      -86.0177548      84.4311238      -86.0177548      84.4311238    -0.0205266332     -10.1173172
0.082              -0.0209901754     -10.3774166      -85.7802095       84.242618      -85.7802095       84.242618    -0.0210269291      -10.370411
0.084              -0.0214909547     -10.6306885      -85.5476856      84.0485449      -85.5476856      84.0485449    -0.0215266537     -10.6235136
0.086              -0.0220015778     -10.8840046      -85.3199249      83.8486129      -85.3199249      83.8486129    -0.0220363685     -10.8766619
0.088              -0.0225148351     -11.1373321      -85.0967688      83.6432001      -85.0967688      83.6432001    -0.0225486958      -11.129822
0.09               -0.0230284651     -11.3906572      -84.8780468      83.4324975      -84.8780468      83.4324975    -0.0230613212     -11.3829799
0.092              -0.0235370979     -11.6439841      -84.6635774      83.2167848      -84.6635774      83.2167848    -0.0235687583     -11.6361397
0.094              -0.0240456643      -11.897321      -84.4531969      82.9960025      -84.4531969      82.9960025     -0.024076044     -11.8893099
0.096              -0.0245628635       -12.15069      -84.2467293      82.7699849      -84.2467293      82.7699849    -0.0245920774     -12.1425131
0.098              -0.0250825917     -12.4040691      -84.0440544      82.5390755      -84.0440544      82.5390755    -0.0251106141      -12.395727
0.1                 -0.025602945      -12.657449       -83.845046      82.3034713       -83.845046      82.3034713    -0.0256297062     -12.6489418
0.102              -0.0261194185     -12.9108418      -83.6495637      82.0634224      -83.6495637      82.0634224    -0.0261447532     -12.9021702
0.104              -0.0266361434     -13.1642463      -83.4574923      81.8189375      -83.4574923      81.8189375    -0.0266599736     -13.1554107
0.106              -0.0271605736     -13.4176728      -83.2687069      81.5699322      -83.2687069      81.5699322    -0.0271829914      -13.408674
0.108              -0.0276874635     -13.6711087      -83.0831109      81.3167074      -83.0831109      81.3167074    -0.0277084413     -13.6619471
0.11                -0.028215184     -13.9245478      -82.9006062      81.0594492      -82.9006062      81.0594492    -0.0282346569     -13.9152236
0.112              -0.0287399006     -14.1780095      -82.7210787      80.7983737      -82.7210787      80.7983737    -0.0287577233     -14.1685239
0.114              -0.0292651225     -14.4314843      -82.5444447      80.5335263      -82.5444447      80.5335263    -0.0292812233     -14.4218378
0.116              -0.0297973214     -14.6849729      -82.3706125      80.2648725      -82.3706125      80.2648725    -0.0298117762      -14.675166
0.118              -0.0303319342     -14.9384702      -82.1995015      79.9926686      -82.1995015      79.9926686    -0.0303447149     -14.9285033
0.12                -0.030867549     -15.1919728      -82.0310321      79.7170814      -82.0310321      79.7170813    -0.0308785958     -15.1818464
0.122              -0.0314008633     -15.4455066      -81.8651083      79.4382906      -81.8651083      79.4382906    -0.0314100481      -15.435222
0.124              -0.0319348914     -15.6990547      -81.7016676      79.1563593      -81.7016676      79.1563593    -0.0319421489     -15.6886127
0.126               -0.032475313     -15.9526096      -81.5406414      78.8712831      -81.5406414      78.8712831    -0.0324807072     -15.9420104
0.128              -0.0330181186     -16.2061727      -81.3819602      78.5832745      -81.3819602      78.5832745    -0.0330216228     -16.1954168
0.13               -0.0335620719      -16.459743      -81.2255578      78.2924774      -81.2255578      78.2924774    -0.0335636317     -16.4488309
0.132              -0.0341043014      -16.713352       -81.071351      77.9990357       -81.071351      77.9990357    -0.0341038046     -16.7022854
0.134              -0.0346474194     -16.9669768      -80.9192925      77.7030191      -80.9192925      77.7030191    -0.0346448075     -16.9557565
0.136              -0.0351964555     -17.2206021      -80.7693306      77.4044405      -80.7693306      77.4044405    -0.0351917843     -17.2092283
0.138              -0.0357478571     -17.4742351      -80.6214039       77.103472      -80.6214039       77.103472    -0.0357411027     -17.4627083
0.14               -0.0363005319     -17.7278771      -80.4754563      76.8002338      -80.4754563      76.8002338    -0.0362916463     -17.7161979
0.142              -0.0368519643     -17.9815646      -80.3314142      76.4948361      -80.3314142      76.4948361      -0.03684085     -17.9697349
0.144              -0.0374044345     -18.2352694      -80.1892419       76.187349      -80.1892419       76.187349    -0.0373910405     -18.2232901
0.146              -0.0379624296      -18.488969      -80.0489001      75.8777957      -80.0489001      75.8777956    -0.0379468064     -18.4768402
0.148              -0.0385227797     -18.7426761      -79.9103343      75.5663117      -79.9103343      75.5663117    -0.0385049074     -18.7303984
0.15               -0.0390845129     -18.9963936      -79.7734959      75.2529946      -79.7734959      75.2529945    -0.0390643507     -18.9839676
0.152              -0.0396454114      -19.250163      -79.6383191       74.937924      -79.6383191       74.937924     -0.039622876     -19.2375909
0.154              -0.0402074772      -19.503951       -79.504777      74.6211678       -79.504777      74.6211678    -0.0401825256     -19.4912339
0.156              -0.0407747387     -19.7577289      -79.3728404      74.3027549      -79.3728404      74.3027549    -0.0407474186     -19.7448666
0.158              -0.0413443508      -20.011514      -79.2424599      73.9827889      -79.2424599      73.9827889    -0.0413146474     -19.9985071
0.16               -0.0419154431     -20.2653108      -79.1135934      73.6613468      -79.1135934      73.6613468    -0.0418833232     -20.2521602
0.162              -0.0424860505     -20.5191654      -78.9861815      73.3384813      -78.9861815      73.3384813    -0.0424514448     -20.5058734
0.164              -0.0430579393     -20.7730401      -78.8602043      73.0142568      -78.8602043      73.0142568    -0.0430208132     -20.7596078
0.166              -0.0436347451        -21.0269      -78.7356405       72.688706      -78.7356405       72.688706    -0.0435951453     -21.0133273
0.168              -0.0442139014     -21.2807668      -78.6124453       72.361905      -78.6124453       72.361905    -0.0441718191     -21.2670543
0.17               -0.0447946248     -21.5346467       -78.490582      72.0339127       -78.490582      72.0339127     -0.044750035     -21.5207952
0.172               -0.045375167     -21.7885898      -78.3699964      71.7047584      -78.3699964      71.7047584    -0.0453280137      -21.774602
0.174               -0.045957092     -22.0425545      -78.2506745      71.3745033      -78.2506745      71.3745033    -0.0459073496     -22.0284315
0.176               -0.046543696     -22.2965001      -78.1326014      71.0431831      -78.1326014      71.0431831    -0.0464914116     -22.2822416
0.178              -0.0471326538     -22.5504524      -78.0157363      70.7108503      -78.0157363      70.7108503    -0.0470778251     -22.5360591
0.18               -0.0477232571     -22.8044191      -77.9000471      70.3775485      -77.9000471      70.3775485    -0.0476658675     -22.7898919
0.182              -0.0483139452      -23.058454      -77.7854841      70.0432871      -77.7854841      70.0432871     -0.048253952     -23.0437958
0.184              -0.0489061077      -23.312512      -77.6720382      69.7081245      -77.6720382      69.7081245    -0.0488434941      -23.297724
0.186              -0.0495027441     -23.5665469      -77.5596997      69.3720997      -77.5596997      69.3720997    -0.0494375587     -23.5516286
0.188              -0.0501017401     -23.8205884      -77.4484316      69.0352451      -77.4484316      69.0352451    -0.0500339876     -23.8055406
0.19               -0.0507024532     -24.0746453      -77.3382053      68.6975917      -77.3382053      68.6975917    -0.0506321254     -24.0594689
0.192              -0.0513034863     -24.3287754      -77.2289755      68.3591322      -77.2289755      68.3591322    -0.0512305534     -24.3134735
0.194               -0.051906077       -24.58293      -77.1207368       68.019923      -77.1207368      68.0199229    -0.0518305311     -24.5675039
0.196              -0.0525129636     -24.8370577      -77.0134842      67.6800067      -77.0134842      67.6800067    -0.0524348557     -24.8215069
0.198               -0.053122218      -25.091192      -76.9071837      67.3393993      -76.9071837      67.3393993    -0.0530415596     -25.0755171
0.2                -0.0537332549     -25.3453426      -76.8018101      66.9981211      -76.8018101      66.9981211    -0.0536500465     -25.3295448
0.202              -0.0543448217     -25.5995712      -76.6973215       66.656151      -76.6973215       66.656151    -0.0542590457     -25.5836535
0.204              -0.0549580223     -25.8538257       -76.593716      66.3135445       -76.593716      66.3135445    -0.0548696798     -25.8377896
0.206              -0.0555753637     -26.1080497      -76.4909924      65.9703486      -76.4909924      65.9703486    -0.0554845084     -26.0918946
0.208              -0.0561950826     -26.3622801      -76.3891194      65.6265653      -76.3891194      65.6265653     -0.056101733     -26.3460067
0.21               -0.0568166446     -26.6165281      -76.2880747      65.2822068      -76.2880747      65.2822068    -0.0567208098     -26.6001373
0.212              -0.0574389251     -26.8708582      -76.1878196      64.9372402      -76.1878196      64.9372402     -0.057340599     -26.8543536
0.214                -0.05806291     -27.1252159      -76.0883548      64.5917212      -76.0883548      64.5917212    -0.0579621024     -27.1085987
0.216              -0.0586908995     -27.3795396      -75.9896825      64.2457019      -75.9896825      64.2457019    -0.0585876673     -27.3628093
0.218              -0.0593212777     -27.6338697      -75.8917737      63.8991727      -75.8917737      63.8991727    -0.0592156464     -27.6170269
0.22               -0.0599535557     -27.8882183      -75.7946087      63.5521392      -75.7946087      63.5521392    -0.0598455423     -27.8712641
0.222              -0.0605867225     -28.1426532      -75.6981516      63.2045592      -75.6981516      63.2045592    -0.0604763323     -28.1255912
0.224              -0.0612216597     -28.3971172      -75.6024053      62.8564894      -75.6024053      62.8564894    -0.0611089108     -28.3799488
0.226              -0.0618604816      -28.651544      -75.5073748      62.5079875      -75.5073748      62.5079875    -0.0617454342     -28.6342685
0.228              -0.0625017046     -28.9059771      -75.4130331      62.1590341      -75.4130331      62.1590341     -0.062384391     -28.8885951
0.23               -0.0631448806     -29.1604296      -75.3193629      61.8096302      -75.3193629      61.8096302    -0.0630253256     -29.1429422
0.232              -0.0637891007     -29.4149725      -75.2263305      61.4597257      -75.2263305      61.4597257    -0.0636673202     -29.3973834
0.234              -0.0644351529     -29.6695459      -75.1339409       61.109379      -75.1339409       61.109379    -0.0643111732     -29.6518568
0.236              -0.0650849842     -29.9240791      -75.0422013      60.7586539      -75.0422013      60.7586539    -0.0649588686     -29.9062889
0.238              -0.0657372301     -30.1786185      -74.9510865      60.4075232      -74.9510865      60.4075232    -0.0656090175      -30.160728
0.24               -0.0663914792     -30.4331782      -74.8605811       60.055984      -74.8605811       60.055984     -0.066261202     -30.4151885
0.242              -0.0670469146     -30.6878321      -74.7706537      59.7039801      -74.7706537      59.7039801    -0.0669145986      -30.669747
0.244              -0.0677042406     -30.9425182      -74.6813107      59.3515722      -74.6813107      59.3515722    -0.0675699199     -30.9243392
0.246              -0.0683652522     -31.1971609      -74.5925612      58.9988304      -74.5925612      58.9988304    -0.0682289933     -31.1788872
0.248              -0.0690286929     -31.4518099      -74.5043819      58.6457211      -74.5043819      58.6457211    -0.0688905409      -31.433442
0.25               -0.0696941848       -31.70648      -74.4167585      58.2922387      -74.4167585      58.2922387    -0.0695541793     -31.6880192
0.252              -0.0703609938     -31.9612479       -74.329662      57.9383217       -74.329662      57.9383217    -0.0702191701     -31.9426981
0.254              -0.0710297493     -32.2160495      -74.2430996      57.5840336      -74.2430996      57.5840336    -0.0708861488     -32.1974124
0.256              -0.0717021074     -32.4708051      -74.1570823      57.2294514      -74.1570823      57.2294514    -0.0715567997     -32.4520794
0.258              -0.0723769102     -32.7255667       -74.071588      56.8745358       -74.071588      56.8745358    -0.0722299465     -32.7067532
0.26               -0.0730538102     -32.9803503       -73.986604      56.5192793       -73.986604      56.5192793    -0.0729052367     -32.9614503
0.262              -0.0737321483     -33.2352353      -73.9021028      56.1636164      -73.9021028      56.1636164    -0.0735820094     -33.2162527
0.264              -0.0744124865     -33.4901555      -73.8180926      55.8076132      -73.8180926      55.8076132    -0.0742608305     -33.4710921
0.266              -0.0750963537     -33.7450268      -73.7345857       55.451354      -73.7345857       55.451354    -0.0749432533     -33.7258813
0.268              -0.0757826824     -33.9999042      -73.6515612      55.0947947      -73.6515612      55.0947947    -0.0756281942     -33.9806773
0.27               -0.0764711524     -34.2548044      -73.5690075      54.7379263      -73.5690075      54.7379263    -0.0763153291     -34.2354973
0.272              -0.0771611734     -34.5098094      -73.4868986        54.38068      -73.4868986        54.38068    -0.0770040681     -34.4904264
0.274              -0.0778532465     -34.7648514      -73.4052435      54.0231247      -73.4052435      54.0231247     -0.077694914     -34.7453942
0.276               -0.078548784     -35.0198421      -73.3240555      53.6653519      -73.3240555      53.6653519    -0.0783892996     -35.0003093
0.278              -0.0792468005     -35.2748388      -73.2433146      53.3073136      -73.2433146      53.3073136    -0.0790862264     -35.2552311
0.28               -0.0799470013     -35.5298592      -73.1630105      52.9489997      -73.1630105      52.9489997    -0.0797853963     -35.5101778
0.282              -0.0806488566     -35.7849866      -73.0831184      52.5903396      -73.0831184      52.5903396    -0.0804862816     -35.7652359
0.284              -0.0813528114     -36.0401514       -73.003648      52.2314056       -73.003648      52.2314056    -0.0811893275     -36.0203331
0.286              -0.0820601723     -36.2952618      -72.9246132      51.8722957      -72.9246132      51.8722957    -0.0818958574     -36.2753743
0.288              -0.0827700315     -36.5503785      -72.8459948      51.5129572      -72.8459948      51.5129572    -0.0826049526     -36.5304226
0.29                -0.083482119     -36.8055209       -72.767783      51.1533786       -72.767783      51.1533786     -0.083316341     -36.7854979
0.292              -0.0841959625     -37.0607749      -72.6899543      50.7934867      -72.6899543      50.7934867     -0.084029554     -37.0406892
0.294              -0.0849119556     -37.3160685      -72.6125188      50.4333574      -72.6125188      50.4333574    -0.0847449839      -37.295922
0.296              -0.0856313043     -37.5713052       -72.535491      50.0730966       -72.535491      50.0730966    -0.0854638495     -37.5510963
0.298              -0.0863531695     -37.8265477      -72.4588528      49.7126489      -72.4588528      49.7126489    -0.0861853035      -37.806277
0.3                -0.0870773013     -38.0818152      -72.3825952       49.352003      -72.3825952       49.352003    -0.0869090944     -38.0614841
0.302              -0.0878032808     -38.3371966      -72.3066956      48.9910832      -72.3066956      48.9910832    -0.0876348086     -38.3168094
0.304              -0.0885314578     -38.5926194       -72.231164       48.629967       -72.231164       48.629967    -0.0883627935     -38.5721782
0.306              -0.0892629466     -38.8479832      -72.1560154      48.2687676      -72.1560154      48.2687676    -0.0890941727     -38.8274863
0.308              -0.0899969724     -39.1033529      -72.0812323      47.9074265      -72.0812323      47.9074265    -0.0898281655     -39.0828008
0.31               -0.0907333052     -39.3587484      -72.0068064      47.5459321      -72.0068064      47.5459321    -0.0905645408     -39.3381426
0.312              -0.0914715735     -39.6142605      -71.9327159       47.184207      -71.9327159       47.184207    -0.0913029339     -39.5936055
0.314              -0.0922120859     -39.8698157      -71.8589709      46.8223313      -71.8589709      46.8223313      -0.09204365     -39.8491134
0.316              -0.0929558712     -40.1253095      -71.7855867      46.4604253      -71.7855867      46.4604253     -0.092787724     -40.1045582
0.318              -0.0937022147     -40.3808092      -71.7125463      46.0984272      -71.7125463      46.0984272    -0.0935344374     -40.3600094
0.32               -0.0944509047     -40.6363353      -71.6398419      45.7363254      -71.6398419      45.7363253    -0.0942835778     -40.6154885
0.322              -0.0952016136     -40.8919807      -71.5674527      45.3740406      -71.5674527      45.3740406    -0.0950348259     -40.8710915
0.324              -0.0959546122     -41.1476707      -71.4953885      45.0116555      -71.4953885      45.0116555    -0.0957884479     -41.1267411
0.326              -0.0967108502     -41.4032971      -71.4236647      44.6492972      -71.4236647      44.6492972    -0.0965453972     -41.3823252
0.328              -0.0974696683     -41.6589293       -71.352265       44.286901       -71.352265       44.286901    -0.0973050124     -41.6379158
0.33               -0.0982308718     -41.9145887      -71.2811818      43.9244547      -71.2811818      43.9244547    -0.0980670986     -41.8935348
0.332              -0.0989941735     -42.1703698      -71.2103952      43.5618778      -71.2103952      43.5618778    -0.0988313778     -42.1492803
0.334              -0.0997598101      -42.426197      -71.1399147      43.1992551      -71.1399147      43.1992551    -0.0995980813     -42.4050741
0.336               -0.100528657     -42.6819585      -71.0697558      42.8367202      -71.0697558      42.8367202     -0.100368086        -42.6608
0.338               -0.101300106     -42.9377257      -70.9999025      42.4742055      -70.9999025      42.4742055     -0.101140785     -42.9165323
0.34                 -0.10207398     -43.1935208      -70.9303478      42.1116986      -70.9303478      42.1116986     -0.101915998     -43.1722938
0.342               -0.102850027     -43.4494398       -70.861072      41.7491176       -70.861072      41.7491176     -0.102693485     -43.4281841
0.344               -0.103628454     -43.7054067      -70.7920849       41.386549      -70.7920849       41.386549     -0.103473446     -43.6841244
0.346               -0.104410066     -43.9613055      -70.7234015      41.0241328      -70.7234015      41.0241328     -0.104256688     -43.9399945
0.348               -0.105194305     -44.2172102      -70.6550064      40.6617986      -70.6550064      40.6617986     -0.105042651      -44.195871
0.35                -0.105981005     -44.4731433      -70.5868926      40.2995336      -70.5868926      40.2995336     -0.105831172     -44.4517773
0.352               -0.106769952     -44.7292025      -70.5190414      39.9372547      -70.5190414      39.9372547     -0.106622045     -44.7078147
0.354               -0.107561322     -44.9853111       -70.451462        39.57505       -70.451462        39.57505     -0.107415442     -44.9639036
0.356               -0.108355855     -45.2413497      -70.3841692      39.2130653      -70.3841692      39.2130653     -0.108212101     -45.2199202
0.358                -0.10915304      -45.497394      -70.3171481      38.8512276      -70.3171481      38.8512276      -0.10901151     -45.4759432
0.36                -0.109952724     -45.7534673      -70.2503918      38.4895236      -70.2503918      38.4895236     -0.109813519     -45.7319965
0.362               -0.110754723      -46.009669      -70.1838822      38.1278691      -70.1838822      38.1278691     -0.110617957     -45.9881831
0.364                -0.11155919     -46.2659214      -70.1176281      37.7663534      -70.1176281      37.7663534     -0.111424966     -46.2444228
0.366               -0.112366802     -46.5221019       -70.051644      37.4051279       -70.051644      37.4051279     -0.112235223     -46.5005881
0.368                -0.11317709      -46.778288      -69.9859153       37.044117      -69.9859153       37.044117     -0.113048259     -46.7567597
0.37                -0.113989915     -47.0345037      -69.9204354       36.683307      -69.9204354       36.683307     -0.113863938     -47.0129622
0.372               -0.114805122     -47.2908497      -69.8551866      36.3226126      -69.8551866      36.3226126     -0.114682117        -47.2693
0.374               -0.115622838      -47.547248      -69.7901773       35.962124      -69.7901773       35.962124     -0.115502916     -47.5256925
0.376               -0.116443686     -47.8035724      -69.7254217      35.6019979      -69.7254217      35.6019979     -0.116326951     -47.7820086
0.378               -0.117267234     -48.0599024      -69.6609054      35.2421561      -69.6609054      35.2421561     -0.117153794     -48.0383309
0.38                -0.118093356     -48.3162625       -69.596622      34.8825845       -69.596622      34.8825845     -0.117983322     -48.2946846
0.382               -0.118921925     -48.5727547      -69.5325543      34.5231965      -69.5325543      34.5231965      -0.11881542     -48.5511756
0.384               -0.119753045     -48.8293007      -69.4687101      34.1640833      -69.4687101      34.1640833     -0.119650185     -48.8077227
0.386               -0.120587285     -49.0857709      -69.4051033      33.8054063      -69.4051033      33.8054063     -0.120488177     -49.0641916
0.388                -0.12142425     -49.3422467      -69.3417198       33.447085      -69.3417198       33.447085     -0.121329006     -49.3206665
0.39                -0.122263827     -49.5987531      -69.2785532      33.0891046      -69.2785532      33.0891046     -0.122172562     -49.5771734
0.392               -0.123105911     -49.8553933      -69.2155868      32.7313774      -69.2155868      32.7313774     -0.123018755     -49.8338193
0.394               -0.123950589     -50.1120888       -69.152828      32.3739952       -69.152828      32.3739952     -0.123867663     -50.0905229