! TOUCHSTONE file generated by CST MICROWAVE STUDIO
! Date and time: Sun Jun 29 16:25:08 2025
! Project name: ResonadorAnillo.cst
! Parameters = {Eeff=3.2499; Er=4.3; H=1.56; L1=20.8016; L2=20.8016; Landa=83.2063; T=0.035; W=2.85151; Wa=2.85151; X=58.2973; Y=58.2973; c=3e+11; f=2e+09; r=13.2427; s=0.3}
! Header version: 2024
! Port assignment regex: !\s*Touchstone port\s*([0-9]+)\s*=\s*(CST MWS port|CST DES external port|CST DES block port)\s*(.+)\s* \(\"(.*)\"\)(\s*mode\s*([0-9]+))?.*
! Touchstone port assignment:
! Touchstone port 1 = CST MWS port 1 ("")
! Touchstone port 2 = CST MWS port 2 ("")
# GHz S DB R 50
0                 5.23207509e-06               0       -154.75265               0      -154.752648               0   5.10624799e-06               0
0.0026           -0.000408601052    -0.169113485      -111.182382      89.5523316      -111.182382      89.5523317  -0.000422179206    -0.168985279
0.0052           -0.000824257446    -0.338254459      -105.138231      89.4366692      -105.138231      89.4366692  -0.000855575636    -0.338008829
0.0078            -0.00124426639    -0.507424913      -101.609699      89.2717609      -101.609699      89.2717609   -0.00129747399    -0.507072994
0.0104            -0.00165713208    -0.676551305      -99.1106219      89.1103216      -99.1106219      89.1103216   -0.00172533379    -0.676074691
0.013             -0.00198965337    -0.845296108      -97.1794677      89.0038817      -97.1794677      89.0038817   -0.00199578194    -0.844522938
0.0156            -0.00232179859     -1.01430271      -95.6008819      88.8930955      -95.6008819      88.8930956   -0.00222335179     -1.01313619
0.0182             -0.0026325037     -1.18340767      -94.2649731      88.7593952      -94.2649731      88.7593952   -0.00256383877     -1.18239557
0.0208            -0.00292151053     -1.35251985      -93.1089939      88.6272108      -93.1089939      88.6272108   -0.00291846313     -1.35175365
0.0234            -0.00325247406     -1.52189914      -92.0905426      88.4917972      -92.0905426      88.4917972   -0.00326950262     -1.52087534
0.026             -0.00361634978     -1.69138938      -91.1805947      88.3560981      -91.1805947      88.3560982   -0.00361723827     -1.68986327
0.0286            -0.00393347221     -1.86049112      -90.3597136      88.2342754      -90.3597136      88.2342755   -0.00391130967     -1.85860373
0.0312            -0.00424187582     -2.02947162      -89.6103369      88.1122691      -89.6103369      88.1122691   -0.00423830985     -2.02766308
0.0338            -0.00454213702     -2.19838187      -88.9214478      87.9929463      -88.9214478      87.9929464   -0.00456643162     -2.19674521
0.0364            -0.00486355704     -2.36747703      -88.2836765      87.8739434      -88.2836765      87.8739434   -0.00489066224     -2.36576445
0.039             -0.00519915533     -2.53671903       -87.689887      87.7558287       -87.689887      87.7558287    -0.0052111181     -2.53476222
0.0416            -0.00551229643      -2.7058523      -87.1348991       87.642492      -87.1348991       87.642492   -0.00550867664     -2.70362867
0.0442            -0.00582103238       -2.874972      -86.6133068      87.5288388      -86.6133068      87.5288388   -0.00582895353       -2.872676
0.0468            -0.00612565778     -3.04406534       -86.121497       87.416211       -86.121497       87.416211   -0.00615015053     -3.04173403
0.0494            -0.00644312489     -3.21321726      -85.6561412      87.3035306      -85.6561412      87.3035306   -0.00646900463     -3.21075914
0.052             -0.00676858941     -3.38241899       -85.214451      87.1909389       -85.214451      87.1909389   -0.00678558253     -3.37977442
0.0546            -0.00708057098      -3.5515684       -84.794262      87.0801226       -84.794262      87.0801226   -0.00708778026     -3.54871133
0.0572            -0.00738992493     -3.72071745      -84.3932439      86.9685457      -84.3932439      86.9685457   -0.00740540809     -3.71776613
0.0598            -0.00769689906     -3.88986331       -84.009782      86.8568635       -84.009782      86.8568635   -0.00772370901     -3.88682718
0.0624            -0.00801308033     -4.05906329      -83.6423248      86.7445012      -83.6423248      86.7445012   -0.00804052123     -4.05586795
0.065              -0.0083347792     -4.22828257      -83.2895514       86.631521      -83.2895514       86.631521   -0.00835588983     -4.22490379
0.0676            -0.00864724169      -4.3974527      -82.9503822      86.5188275      -82.9503822      86.5188275   -0.00866149811     -4.39388669
0.0702            -0.00895800427     -4.56661038      -82.6236038      86.4049599      -82.6236038      86.4049599   -0.00897854777     -4.56295522
0.0728            -0.00926730583      -4.7357659       -82.308355      86.2903037       -82.308355      86.2903037   -0.00929622184     -4.73202896
0.0754            -0.00958374913     -4.90496842      -82.0037851       86.174553      -82.0037851       86.174553   -0.00961295506     -4.90108978
0.078             -0.00990443795     -5.07418962      -81.7091648      86.0577405      -81.7091648      86.0577405   -0.00992878026      -5.0701486
0.0806             -0.0102184292     -5.24338625      -81.4238814      85.9404113      -81.4238814      85.9404113    -0.0102375181     -5.23916908
0.0832             -0.0105313238     -5.41257592      -81.1472355      85.8216488      -81.1472355      85.8216488    -0.0105552565     -5.40825615
0.0858             -0.0108433314     -5.58176598      -80.8787223      85.7017164      -80.8787223      85.7017164    -0.0108736309     -5.57734841
0.0884             -0.0111610907     -5.75098654      -80.6178327      85.5804473      -80.6178327      85.5804473    -0.0111914398     -5.74643253
0.091              -0.0114822813     -5.92021815      -80.3641217      85.4578672      -80.3641217      85.4578672    -0.0115087084     -5.91551664
0.0936             -0.0117984594     -6.08944258      -80.1172037      85.3343369      -80.1172037      85.3343369    -0.0118206047      -6.0845718
0.0962             -0.0121139482     -6.25866383      -79.8766439      85.2092482      -79.8766439      85.2092482     -0.012139885      -6.2536813
0.0988             -0.0124289349     -6.42788721       -79.642123      85.0827971       -79.642123      85.0827971     -0.012459832     -6.42279629
0.1014             -0.0127487017     -6.59712944      -79.4133141      84.9548858      -79.4133141      84.9548858    -0.0127794849     -6.59190651
0.104               -0.013071352     -6.76637749      -79.1899265      84.8255416      -79.1899265      84.8255416    -0.0130988639     -6.76101819
0.1066             -0.0133901767      -6.9356315      -78.9716993      84.6950231      -78.9716993      84.6950231    -0.0134140524     -6.93010748
0.1092             -0.0137086039     -7.10488514       -78.758347      84.5629106       -78.758347      84.5629107    -0.0137354918     -7.09924269
0.1118             -0.0140268029     -7.27414222      -78.5496556      84.4293576      -78.5496556      84.4293576    -0.0140576338     -7.26838383
0.1144             -0.0143490866     -7.44340934      -78.3454046      84.2943078      -78.3454046      84.2943078    -0.0143796872     -7.43752272
0.117              -0.0146738747     -7.61267832      -78.1453937      84.1577895      -78.1453937      84.1577895    -0.0147016685     -7.60666427
0.1196             -0.0149957071      -7.7819638      -77.9494353      84.0199948      -77.9494353      84.0199948    -0.0150203169     -7.77578822
0.1222             -0.0153173615     -7.95125113      -77.7573346      83.8806264      -77.7573346      83.8806264    -0.0153443877     -7.94495211
0.1248             -0.0156389926     -8.12054293      -77.5689412      83.7398076      -77.5689412      83.7398076    -0.0156691978     -8.11412241
0.1274             -0.0159641942     -8.28983771      -77.3841002      83.5975094      -77.3841002      83.5975094    -0.0159940805     -8.28329244
0.13               -0.0162916289     -8.45913115      -77.2026675      83.4537589      -77.2026675      83.4537589    -0.0163190497     -8.45246613
0.1326             -0.0166167693     -8.62844993      -77.0245022      83.3087014      -77.0245022      83.3087014     -0.016641333      -8.6216259
0.1352             -0.0169419038     -8.79777242      -76.8494669      83.1621231      -76.8494669      83.1621231    -0.0169684133     -8.79082119
0.1378             -0.0172671745     -8.96710025      -76.6774528      83.0141243      -76.6774528      83.0141243    -0.0172962687     -8.96002339
0.1404             -0.0175956246     -9.13642519      -76.5083457      82.8646831      -76.5083457      82.8646831    -0.0176243272     -9.12922694
0.143              -0.0179261074     -9.30574613      -76.3420392      82.7138284      -76.3420392      82.7138284    -0.0179526007     -9.29843503
0.1456             -0.0182548115     -9.47510009      -76.1784236      82.5616762      -76.1784236      82.5616762     -0.018278692      -9.4676321
0.1482             -0.0185836486     -9.64445945      -76.0173994       82.408076      -76.0173994       82.408076    -0.0186090951     -9.63686134
0.1508             -0.0189127506     -9.81382495      -75.8588859      82.2531059      -75.8588859      82.2531059    -0.0189403075     -9.80609801
0.1534             -0.0192447369     -9.98318257      -75.7027978      82.0967265      -75.7027978      82.0967265    -0.0192718313     -9.97533736
0.156              -0.0195786104     -10.1525341      -75.5490539      81.9389746      -75.5490539      81.9389746    -0.0196036771      -10.144582
0.1586             -0.0199111078     -10.3219256      -75.3975653       81.779956      -75.3975653       81.779956    -0.0199337399      -10.313818
0.1612             -0.0202438536     -10.4913241      -75.2482523      81.6195893      -75.2482523      81.6195893    -0.0202677249     -10.4830836
0.1638             -0.0205769706     -10.6607296      -75.1010593      81.4579154      -75.1010593      81.4579154    -0.0206025505      -10.652357
0.1664              -0.020912757     -10.8301228      -74.9559264      81.2948706      -74.9559264      81.2948706    -0.0209377783     -10.8216342
0.169              -0.0212503311     -10.9995081      -74.8127882      81.1304997      -74.8127882      81.1304997    -0.0212734186     -10.9909176
0.1716             -0.0215868472     -11.1689401      -74.6715678      80.9649035      -74.6715678      80.9649035    -0.0216076163     -11.1601957
0.1742             -0.0219237096     -11.3383808      -74.5322295      80.7973825      -74.5322295      80.7973825    -0.0219455201     -11.3295037
0.1768             -0.0222610344     -11.5078293      -74.3947105      80.6285152      -74.3947105      80.6285152    -0.0222843199     -11.4988232
0.1794             -0.0226008629     -11.6772611      -74.2589687       80.458321      -74.2589687       80.458321    -0.0226236178     -11.6681516
0.182              -0.0229424072     -11.8466834      -74.1249505      80.2868433      -74.1249505      80.2868433    -0.0229634169     -11.8374876
0.1846             -0.0232831609     -12.0161586      -73.9925874      80.1141668      -73.9925874      80.1141668      -0.02330205     -12.0068163
0.1872             -0.0236243471     -12.1856442      -73.8618583      79.9411605      -73.8618583      79.9411605    -0.0236439568     -12.1761668
0.1898             -0.0239660754     -12.3551382        -73.73271      79.7670857        -73.73271      79.7670857    -0.0239867484     -12.3455214
0.1924             -0.0243101618     -12.5246115      -73.6051155      79.5918141      -73.6051155      79.5918141    -0.0243300828     -12.5148758
0.195              -0.0246559017     -12.6940733      -73.4790263      79.4153721      -73.4790263      79.4153721    -0.0246739761     -12.6842357
0.1976             -0.0250010907     -12.8635939      -73.3543775       79.237811      -73.3543775       79.237811     -0.025016918     -12.8535935
0.2002             -0.0253467903     -13.0331264      -73.2311167      79.0587728      -73.2311167      79.0587728     -0.025363051     -13.0229786
0.2028             -0.0256931033     -13.2026679       -73.109234      78.8785671       -73.109234      78.8785671    -0.0257101276     -13.1923754
0.2054             -0.0260416424     -13.3721849      -72.9887152      78.6972384      -72.9887152      78.6972384     -0.026057828     -13.3617815
0.208              -0.0263917789     -13.5416886       -72.869521      78.5148037       -72.869521      78.5148037    -0.0264061562     -13.5311963
0.2106             -0.0267415812     -13.7112565      -72.7515943      78.3312895      -72.7515943      78.3312895    -0.0267537342     -13.7006085
0.2132             -0.0270919651     -13.8808376      -72.6349166       78.146626      -72.6349166       78.146626    -0.0271043188     -13.8700445
0.2158             -0.0274430269     -14.0504282      -72.5194614      77.9608846      -72.5194614      77.9608846    -0.0274558716     -14.0394904
0.2184             -0.0277962002     -14.2199909      -72.4052164      77.7740949      -72.4052164      77.7740949    -0.0278081023      -14.208944
0.221              -0.0281509244     -14.3895387      -72.2921479      77.5862648      -72.2921479      77.5862648    -0.0281610177     -14.3784062
0.2236             -0.0285055063     -14.5591556      -72.1802038      77.3974015      -72.1802038      77.3974015    -0.0285133588     -14.5478671
0.2262             -0.0288607354      -14.728787      -72.0693715      77.2074735      -72.0693715      77.2074735     -0.028868562     -14.7173513
0.2288             -0.0292167011     -14.8984286      -71.9596291      77.0165244      -71.9596291      77.0165244    -0.0292247629      -14.886846
0.2314             -0.0295746824      -15.068039      -71.8509684      76.8245888      -71.8509684      76.8245888    -0.0295816958     -15.0563492
0.234              -0.0299341776      -15.237633      -71.7433604      76.6316698      -71.7433604      76.6316698    -0.0299393669     -15.2258615
0.2366             -0.0302937002     -15.4073007      -71.6367574      76.4377622      -71.6367574      76.4377622    -0.0302966152     -15.3953735
0.2392             -0.0306539308     -15.5769845      -71.5311515      76.2428507      -71.5311515      76.2428507     -0.030656606     -15.5649082
0.2418             -0.0310149522     -15.7466788      -71.4265246      76.0469691      -71.4265246      76.0469691    -0.0310176239     -15.7344539
0.2444             -0.0313779094      -15.916339      -71.3228715      75.8501545      -71.3228715      75.8501545     -0.031379424     -15.9040087
0.247              -0.0317423521     -16.0859812       -71.220167      75.6524074       -71.220167      75.6524074    -0.0317420125     -16.0735732
0.2496             -0.0321069733     -16.2557018       -71.118367      75.4537132       -71.118367      75.4537132    -0.0321043126     -16.2431383
0.2522             -0.0324723593     -16.4254398      -71.0174673      75.2540678      -71.0174673      75.2540678    -0.0324692551     -16.4127256
0.2548             -0.0328385868     -16.5951888      -70.9174527      75.0534987      -70.9174527      75.0534987     -0.032835254     -16.5823244
0.2574             -0.0332066835     -16.7649007      -70.8183207      74.8520448      -70.8183207      74.8520448    -0.0332020826      -16.751933
0.26               -0.0335762444     -16.9345933       -70.720049      74.6497044       -70.720049      74.6497044    -0.0335697467     -16.9215517
0.2626             -0.0339461194     -17.1043686      -70.6225965      74.4464558      -70.6225965      74.4464558    -0.0339372428     -17.0911718
0.2652             -0.0343168132     -17.2741627      -70.5259618      74.2423031      -70.5259618      74.2423031    -0.0343072974     -17.2608139
0.2678             -0.0346883962     -17.4439685      -70.4301322      74.0372695      -70.4301322      74.0372695    -0.0346784375     -17.4304679
0.2704             -0.0350617925     -17.6137341      -70.3351074      73.8313952      -70.3351074      73.8313952    -0.0350504524     -17.6001323
0.273              -0.0354366376     -17.7834792      -70.2408675      73.6246767      -70.2408675      73.6246767    -0.0354233477     -17.7698073
0.2756             -0.0358119202     -17.9533111      -70.1473737      73.4170862      -70.1473737      73.4170862    -0.0357961841     -17.9394844
0.2782             -0.0361880728     -18.1231633       -70.054627      73.2086344       -70.054627      73.2086344    -0.0361715081     -18.1091833
0.2808             -0.0365651601     -18.2930276      -69.9626167      72.9993415      -69.9626167      72.9993415    -0.0365479469     -18.2788945
0.2834             -0.0369440136      -18.462849      -69.8713442      72.7892486      -69.8713442      72.7892486    -0.0369253036     -18.4486167
0.286              -0.0373243052     -18.6326485      -69.7807918      72.5783509      -69.7807918      72.5783509    -0.0373035837     -18.6183501
0.2886             -0.0377051475      -18.802539      -69.6909225      72.3666146      -69.6909225      72.3666146    -0.0376819044     -18.7880862
0.2912             -0.0380869091     -18.9724512      -69.6017392      72.1540568      -69.6017392      72.1540568    -0.0380626531     -18.9578438
0.2938             -0.0384696489     -19.1423759      -69.5132329      71.9406946      -69.5132329      71.9406946    -0.0384445458     -19.1276142
0.2964             -0.0388541154     -19.3122551      -69.4254066      71.7265705      -69.4254066      71.7265705    -0.0388273981     -19.2973963
0.299               -0.039240013     -19.4821111       -69.338244      71.5116782       -69.338244      71.5116782    -0.0392112153     -19.4671899
0.3016             -0.0396265661     -19.6520619      -69.2517101       71.295979      -69.2517101       71.295979    -0.0395951644     -19.6369869
0.3042             -0.0400140862     -19.8220359       -69.165809      71.0794949       -69.165809      71.0794949    -0.0399814916     -19.8068053
0.3068             -0.0404026265     -19.9920229      -69.0805332      70.8622407      -69.0805332      70.8622407    -0.0403689921     -19.9766369
0.3094             -0.0407928601     -20.1619617      -68.9958871      70.6442605      -68.9958871      70.6442605    -0.0407574925     -20.1464808
0.312              -0.0411845216     -20.3318761      -68.9118557      70.4255465      -68.9118557      70.4255465    -0.0411469981     -20.3163366
0.3146             -0.0415769358     -20.5018891      -68.8284054      70.2060553      -68.8284054      70.2060553    -0.0415367201     -20.4861963
0.3172             -0.0419703634     -20.6719267      -68.7455415      69.9858135      -68.7455415      69.9858135    -0.0419287785     -20.6560774
0.3198             -0.0423648519     -20.8419779      -68.6632577      69.7648339      -68.6632577      69.7648339    -0.0423220395     -20.8259722
0.3224              -0.042761006     -21.0119782      -68.5815595      69.5431622      -68.5815595      69.5431622    -0.0427163398     -20.9958797
0.325              -0.0431585874      -21.181953      -68.5004331      69.3207893      -68.5004331      69.3207893    -0.0431116845     -21.1657996
0.3276             -0.0435570127     -21.3520298       -68.419846      69.0976673       -68.419846      69.0976673    -0.0435073244     -21.3357239
0.3302             -0.0439564967     -21.5221329      -68.3398047       68.873827      -68.3398047       68.873827    -0.0439052661     -21.5056696
0.3328             -0.0443570814     -21.6922499      -68.2603037      68.6492794      -68.2603037      68.6492794    -0.0443044399     -21.6756294
0.3354             -0.0447593084     -21.8623136      -68.1813495      68.4240721      -68.1813495      68.4240721    -0.0447046914     -21.8456024
0.338              -0.0451629649     -22.0323506      -68.1029293      68.1981945      -68.1029293      68.1981945    -0.0451060256     -22.0155883
0.3406             -0.0455675511     -22.2024931      -68.0250117      67.9715947      -68.0250117      67.9715947    -0.0455077289     -22.1855789
0.3432             -0.0459732404     -22.3726633      -67.9476039      67.7443072      -67.9476039      67.7443072    -0.0459117057      -22.355591
0.3458             -0.0463800691     -22.5428479      -67.8707014      67.5163416      -67.8707014      67.5163416    -0.0463169441     -22.5256177
0.3484             -0.0467885213     -22.7129767      -67.7943115      67.2877471      -67.7943115      67.2877471    -0.0467232979      -22.695658
0.351              -0.0471984072     -22.8830777       -67.718422       67.058512       -67.718422       67.058512    -0.0471307722     -22.8657116
0.3536             -0.0476093041     -23.0532875      -67.6430028      66.8285806      -67.6430028      66.8285806    -0.0475386852     -23.0357704
0.3562             -0.0480213475     -23.2235265      -67.5680614      66.5979908      -67.5680614      66.5979908    -0.0479488487     -23.2058508
0.3588             -0.0484345687     -23.3937803      -67.4935942      66.3667507      -67.4935942      66.3667507    -0.0483603036     -23.3759461
0.3614              -0.048849398     -23.5639761      -67.4196092      66.1349115      -67.4196092      66.1349115    -0.0487729111     -23.5460556
0.364              -0.0492656673     -23.7341428      -67.3460949      65.9024605      -67.3460949      65.9024605    -0.0491866759     -23.7161786
0.3666             -0.0496830246     -23.9044215      -67.2730221      65.6693381      -67.2730221      65.6693381    -0.0496009451     -23.8863071
0.3692             -0.0501015716      -24.074731      -67.2003988      65.4355856      -67.2003988      65.4355856    -0.0500174464     -24.0564571
0.3718             -0.0505213337     -24.2450557      -67.1282221      65.2012098      -67.1282221      65.2012098    -0.0504352691     -24.2266226
0.3744             -0.0509426919       -24.41532      -67.0565003      64.9662637      -67.0565003      64.9662637    -0.0508542815     -24.3968028
0.377              -0.0513654983     -24.5855541      -66.9852227      64.7307334      -66.9852227      64.7307334     -0.051274488     -24.5669972
0.3796              -0.051789466     -24.7559033       -66.914361      64.4945561       -66.914361      64.4945561    -0.0516952619     -24.7371973
0.3822              -0.052214666     -24.9262849      -66.8439234      64.2577759      -66.8439234      64.2577759    -0.0521182537     -24.9074192
0.3848             -0.0526411183     -25.0966821      -66.7739076      64.0203988      -66.7739076      64.0203988    -0.0525425969     -25.0776568
0.3874             -0.0530691579     -25.2670167      -66.7043226      63.7824795      -66.7043226      63.7824795    -0.0529681657     -25.2479094
0.39               -0.0534986552     -25.4373201      -66.6351581      63.5440032      -66.6351581      63.5440032    -0.0533949647     -25.4181765
0.3926             -0.0539293838     -25.6077413      -66.5663864      63.3049037      -66.5663864      63.3049037    -0.0538223911     -25.5884497
0.3952             -0.0543613864     -25.7781963      -66.4980162      63.0652281      -66.4980162      63.0652281    -0.0542520252     -25.7587448
0.3978             -0.0547946778     -25.9486673      -66.4300457      62.8249812      -66.4300457      62.8249812     -0.054683041      -25.929056
0.4004             -0.0552295503     -26.1190735       -66.362484      62.5842198       -66.362484      62.5842198    -0.0551153182     -26.0993827
0.403              -0.0556658917     -26.2894475      -66.2953216      62.3429279      -66.2953216      62.3429279    -0.0555488616     -26.2697241
0.4056             -0.0561035318     -26.4599422      -66.2285314      62.1010363      -66.2285314      62.1010363    -0.0559830899      -26.440072
0.4082             -0.0565424878     -26.6304724      -66.1621223      61.8585947      -66.1621223      61.8585947    -0.0564195187     -26.6104419
0.4108             -0.0569827689     -26.8010189      -66.0960928       61.615607      -66.0960928       61.615607    -0.0568573598     -26.7808283
0.4134             -0.0574246268     -26.9714984      -66.0304526       61.372132      -66.0304526       61.372132    -0.0572964979     -26.9512306
0.416              -0.0578679663     -27.1419446      -65.9651924      61.1281528      -65.9651924      61.1281528    -0.0577369376     -27.1216479
0.4186             -0.0583126689     -27.3125142      -65.9002859      60.8835972      -65.9002859      60.8835972    -0.0581781178      -27.292072
0.4212             -0.0587587287     -27.4831209       -65.835742      60.6385174       -65.835742      60.6385174    -0.0586214943     -27.4625183
0.4238             -0.0592061496     -27.6537443      -65.7715598      60.3929164      -65.7715598      60.3929164    -0.0590663136     -27.6329813
0.4264             -0.0596551457     -27.8242985       -65.707749      60.1468551       -65.707749      60.1468551    -0.0595124653     -27.8034606
0.429              -0.0601056368     -27.9948185      -65.6443009      59.9003154      -65.6443009      59.9003154     -0.059959954     -27.9739554
0.4316             -0.0605575533     -28.1654643      -65.5811898      59.6532228      -65.5811898      59.6532228    -0.0604082368     -28.1444571
0.4342             -0.0610108681     -28.3361488      -65.5184245      59.4056313      -65.5184245      59.4056313    -0.0608587142     -28.3149812
0.4368             -0.0614655797     -28.5068504      -65.4560047      59.1575435      -65.4560047      59.1575435    -0.0613106652     -28.4855224
0.4394             -0.0619218666     -28.6774807      -65.3939401      58.9090221      -65.3939401      58.9090221    -0.0617639838     -28.6560802
0.442              -0.0623796634     -28.8480758      -65.3322223      58.6600481      -65.3322223      58.6600481    -0.0622186744     -28.8266538
0.4446             -0.0628389454     -29.0187992      -65.2708265      58.4105444      -65.2708265      58.4105444    -0.0626742111     -28.9972344
0.4472             -0.0632996667     -29.1895628      -65.2097614      58.1605673      -65.2097614      58.1605673    -0.0631319431     -29.1678377
0.4498             -0.0637618201     -29.3603439      -65.1490268      57.9101186      -65.1490268      57.9101186    -0.0635911795     -29.3384585
0.4524             -0.0642255509     -29.5310518      -65.0886328       57.659263      -65.0886328       57.659263    -0.0640518184     -29.5090962
0.455              -0.0646908075     -29.7017234      -65.0285712      57.4079805      -65.0285712      57.4079805    -0.0645138644       -29.67975
0.4576             -0.0651576071     -29.8725256      -64.9688179      57.1561916      -64.9688179      57.1561916     -0.064976807      -29.850411
0.4602             -0.0656258864     -30.0433696      -64.9093813      56.9039547      -64.9093813      56.9039547    -0.0654419475     -30.0210948
0.4628             -0.0660956334     -30.2142314      -64.8502618      56.6512709      -64.8502618      56.6512709    -0.0659086234     -30.1917964
0.4654             -0.0665669613      -30.385018      -64.7914694      56.3982069      -64.7914694      56.3982069    -0.0663767367     -30.3625153
0.468              -0.0670398317     -30.5557675      -64.7329964      56.1447418      -64.7329964      56.1447418    -0.0668462918     -30.5332506
0.4706             -0.0675143011     -30.7266496      -64.6748191      55.8907939      -64.6748191      55.8907939    -0.0673167926     -30.7039932
0.4732             -0.0679902907     -30.8975752      -64.6169459      55.6364233      -64.6169459      55.6364233    -0.0677894959     -30.8747588
0.4758              -0.068467783     -31.0685189      -64.5593774      55.3816307      -64.5593774      55.3816307    -0.0682637656     -31.0455425
0.4784             -0.0689468614     -31.2393855      -64.5021238      55.1264845      -64.5021238      55.1264845    -0.0687395074     -31.2163439
0.481              -0.0694274999     -31.4102141      -64.4451774      54.8709632      -64.4451774      54.8709632    -0.0692167257     -31.3871619
0.4836             -0.0699097915     -31.5811773      -64.3885154      54.6149828      -64.3885154      54.6149828    -0.0696949377     -31.5579873
0.4862             -0.0703936436     -31.7521856      -64.3321458      54.3586053      -64.3321458      54.3586053    -0.0701753582      -31.728836
0.4888             -0.0708790332     -31.9232124      -64.2760696      54.1018307      -64.2760696      54.1018307    -0.0706573762     -31.8997031
0.4914             -0.0713660157     -32.0941601       -64.220297      53.8447295       -64.220297      53.8447295    -0.0711409009      -32.070588
0.494              -0.0718545765     -32.2650689      -64.1648205      53.5872792      -64.1648205      53.5872792    -0.0716259365     -32.2414899
0.4966             -0.0723448429     -32.4361143      -64.1096179      53.3293938      -64.1096179      53.3293938    -0.0721120127     -32.4123993
0.4992             -0.0728367098     -32.6072063      -64.0546971      53.0711371      -64.0546971      53.0711371    -0.0726003049     -32.5833323
0.5018              -0.073330149     -32.7783172      -64.0000593      52.8125084      -64.0000593      52.8125084    -0.0730902258     -32.7542838
0.5044             -0.0738251889     -32.9493471      -63.9457145      52.5535803      -63.9457145      52.5535803    -0.0735816877     -32.9252535
0.507              -0.0743218262     -33.1203374      -63.8916557      52.2943294      -63.8916557      52.2943294     -0.074074695     -33.0962404
0.5096             -0.0748202201     -33.2914659      -63.8378612      52.0346677      -63.8378612      52.0346677    -0.0745687887     -33.2672349
0.5122             -0.0753202541     -33.4626427      -63.7843385      51.7746607      -63.7843385      51.7746607    -0.0750651069     -33.4382531