! TOUCHSTONE file generated by CST MICROWAVE STUDIO
! Date and time: Sun Jun 29 16:26:48 2025
! Project name: ResonadorAnillo.cst
! Parameters = {Eeff=2.85062; Er=3.66; H=1.524; L1=22.2107; L2=22.2107; Landa=88.8427; T=0.017; W=3.30928; Wa=3.30928; X=62.4704; Y=62.4704; c=3e+11; f=2e+09; r=14.1398; s=0.3}
! Header version: 2024
! Port assignment regex: !\s*Touchstone port\s*([0-9]+)\s*=\s*(CST MWS port|CST DES external port|CST DES block port)\s*(.+)\s* \(\"(.*)\"\)(\s*mode\s*([0-9]+))?.*
! Touchstone port assignment:
! Touchstone port 1 = CST MWS port 1 ("")
! Touchstone port 2 = CST MWS port 2 ("")
# GHz S DB R 50
0                 1.75823064e-06               0      -153.426877               0      -153.426878               0   1.74143721e-06               0
0.0026           -0.000187875783    -0.171264059      -111.415518       89.399183      -111.415518      89.3991832   -0.00016856261    -0.171239811
0.0052           -0.000385756041    -0.342581905      -105.391912      89.3791029      -105.391912       89.379103  -0.000341832245    -0.342507622
0.0078           -0.000593104672    -0.513953448      -101.868084      89.2520228      -101.868084      89.2520229  -0.000519251898    -0.513803354
0.0104           -0.000784806989    -0.685240609      -99.3691176      89.1096626      -99.3691176      89.1096627  -0.000689780342    -0.685055614
0.013            -0.000801175288    -0.855779697      -97.4365129      89.0137941      -97.4365129      89.0137941  -0.000783199229     -0.85593795
0.0156           -0.000766639938     -1.02645425      -95.8550531      88.9050774      -95.8550531      88.9050774  -0.000875714805     -1.02706807
0.0182           -0.000863341834     -1.19810567      -94.5139555      88.7632175      -94.5139555      88.7632175  -0.000947205996     -1.19829016
0.0208           -0.000977525385     -1.36989209      -93.3522012      88.6173554      -93.3522012      88.6173555  -0.000997512909     -1.36951486
0.0234             -0.0010891103      -1.5413345      -92.3280358      88.4643885      -92.3280358      88.4643885   -0.00108786342     -1.54100124
0.026              -0.0011982392     -1.71258961      -91.4123094      88.3078118      -91.4123094      88.3078118   -0.00120969305     -1.71259993
0.0286            -0.00124851965      -1.8835542      -90.5855929        88.16257      -90.5855929      88.1625701   -0.00128658267      -1.8838122
0.0312            -0.00133340562     -2.05483238      -89.8304192      88.0139663      -89.8304192      88.0139663   -0.00135492853     -2.05490599
0.0338            -0.00141965947     -2.22614408      -89.1357824      87.8658686      -89.1357824      87.8658686    -0.0014151933     -2.22592922
0.0364            -0.00150207879      -2.3974063      -88.4923804      87.7164763      -88.4923804      87.7164763   -0.00149522035      -2.3971366
0.039             -0.00158069263     -2.56865037      -87.8931421      87.5667028      -87.8931421      87.5667029   -0.00158832039     -2.56849023
0.0416            -0.00163666623     -2.73976871      -87.3329208      87.4206525      -87.3329208      87.4206525   -0.00165952312     -2.73972293
0.0442            -0.00171361605      -2.9110561      -86.8063652      87.2736839      -86.8063652      87.2736839   -0.00172608539      -2.9109397
0.0468            -0.00179103194     -3.08235136      -86.3098538      87.1273479      -86.3098538      87.1273479    -0.0017882922     -3.08212757
0.0494            -0.00186585451     -3.25361283      -85.8400801      86.9806607      -85.8400801      86.9806607   -0.00186240359     -3.25337952
0.052             -0.00193810221     -3.42486308      -85.3942644      86.8339952      -85.3942644      86.8339952   -0.00194373223     -3.42468465
0.0546            -0.00199640588     -3.59603784      -84.9702472      86.6892605      -84.9702472      86.6892605   -0.00201101456     -3.59592177
0.0572            -0.00206866358      -3.7673221      -84.5657028      86.5441655      -84.5657028      86.5441656   -0.00207521102       -3.767156
0.0598            -0.00214107366      -3.9386098      -84.1790023      86.3994638      -84.1790023      86.3994638   -0.00213656514     -3.93838487
0.0624            -0.00221161903     -4.10987529      -83.8089196      86.2513809      -83.8089196      86.2513809   -0.00220886716     -4.10966685
0.065             -0.00228031202     -4.28113401      -83.4540656      86.1009954      -83.4540656      86.1009954   -0.00228771974     -4.28097271
0.0676            -0.00233938161     -4.45234134      -83.1132116      85.9510569      -83.1132116      85.9510569   -0.00235809606     -4.45220417
0.0702            -0.00240859978     -4.62362748      -82.7851308      85.8002865      -82.7851308      85.8002865   -0.00242664527     -4.62342037
0.0728            -0.00247787436     -4.79491592      -82.4689567      85.6491262      -82.4689567      85.6491262   -0.00249355395     -4.79462734
0.0754             -0.0025457467     -4.96618896      -82.1619892      85.5099052      -82.1619892      85.5099052   -0.00255773042     -4.96594034
0.078             -0.00261222597     -5.13745787      -81.8639461      85.3786435      -81.8639461      85.3786436   -0.00261963198     -5.13730125
0.0806            -0.00267155856     -5.30868919      -81.5752203      85.2488048      -81.5752203      85.2488048   -0.00267716155      -5.3085812
0.0832             -0.0027387114     -5.47998112       -81.295057      85.1195804       -81.295057      85.1195804   -0.00273282316     -5.47984588
0.0858            -0.00280589404     -5.65127519      -81.0229233      84.9911759      -81.0229233      84.9911759   -0.00278672636     -5.65110966
0.0884            -0.00287198837     -5.82255824      -80.7602338       84.853269      -80.7602338       84.853269   -0.00285283383     -5.82237841
0.091             -0.00293700158     -5.99383895      -80.5059798      84.7094886      -80.5059798      84.7094886   -0.00292617804     -5.99364689
0.0936            -0.00299645027     -6.16509094      -80.2587099      84.5659832      -80.2587099      84.5659832   -0.00299027437     -6.16490627
0.0962            -0.00306217367     -6.33639171      -80.0179866      84.4220629      -80.0179866      84.4220629   -0.00305299262     -6.33616218
0.0988              -0.003127926     -6.50769479      -79.7834823      84.2779105      -79.7834823      84.2779105   -0.00311464281      -6.5074166
0.1014            -0.00319281425     -6.67898994       -79.554551      84.1341626       -79.554551      84.1341626   -0.00317973698     -6.67871233
0.104             -0.00325684451     -6.85028403      -79.3309922      83.9905266      -79.3309922      83.9905266   -0.00324666172     -6.85002864
0.1066            -0.00331639717     -7.02155557      -79.1127324       83.846821      -79.1127324       83.846821   -0.00330953007     -7.02130989
0.1092            -0.00338113761     -7.19286774      -78.8994583      83.7026198      -78.8994583      83.7026198   -0.00337139981     -7.19258642
0.1118             -0.0034459166     -7.36418251      -78.6909466       83.558052      -78.6909466       83.558052   -0.00343241224     -7.36386257
0.1144            -0.00350999967     -7.53549165      -78.4868859      83.4131505      -78.4868859      83.4131505     -0.003496656      -7.5351713
0.117             -0.00357339216     -7.70680075      -78.2870971      83.2678675      -78.2870971      83.2678675   -0.00356263596     -7.70649611
0.1196            -0.00363309405     -7.87809181      -78.0914548      83.1223169      -78.0914548      83.1223169   -0.00362507739     -7.87779448
0.1222            -0.00369718594     -8.04941765      -77.8997395      82.9761625      -77.8997395      82.9761625   -0.00368669012     -8.04908967
0.1248            -0.00376133056     -8.22074644      -77.7117929      82.8295069      -77.7117929      82.8295069   -0.00374761585     -8.22038541
0.1274            -0.00382491012     -8.39207141      -77.5274128      82.6822946      -77.5274128      82.6822946   -0.00381135287     -8.39170924
0.13              -0.00388792949      -8.5633972      -77.3464646      82.5345198      -77.3464646      82.5345198   -0.00387660122     -8.56304726
0.1326            -0.00394785082     -8.73470844      -77.1688472      82.3863152      -77.1688472      82.3863152   -0.00393885438     -8.73436365
0.1352              -0.004011556     -8.90605013      -76.9943984      82.2373809      -76.9943984      82.2373809   -0.00400041845     -8.90567812
0.1378            -0.00407532996     -9.07739523      -76.8230043      82.0878268      -76.8230043      82.0878268    -0.0040614285     -9.07699392
0.1404            -0.00413864388     -9.24873807       -76.654522      81.9375878       -76.654522      81.9375879   -0.00412490154     -9.24833473
0.143              -0.0042015023     -9.42008248      -76.4888501      81.7866697      -76.4888501      81.7866697   -0.00418970234     -9.41968859
0.1456            -0.00426171795     -9.59141502      -76.3259105      81.6351923      -76.3259105      81.6351923   -0.00425194808     -9.59102427
0.1482            -0.00432524464     -9.76277458      -76.1655547      81.4829359      -76.1655547      81.4829359   -0.00431361782     -9.76235907
0.1508            -0.00438885624     -9.93413786      -76.0077191       81.329968      -76.0077191       81.329968    -0.0043748403     -9.93369585
0.1534            -0.00445209355        -10.1055      -75.8523014      81.1762241      -75.8523014      81.1762241   -0.00443824969     -10.1050554
0.156             -0.00451496086     -10.2768643      -75.6992238      81.0217132      -75.6992238      81.0217132    -0.0045028448     -10.2764273
0.1586            -0.00457556078     -10.4482186       -75.548426      80.8665383       -75.548426      80.8665383   -0.00456523948     -10.4477837
0.1612            -0.00463911805     -10.6195969      -75.3998276      80.7108241      -75.3998276      80.7108241   -0.00462715187     -10.6191401
0.1638            -0.00470278181     -10.7909786      -75.2533505      80.5543773      -75.2533505      80.5543773    -0.0046887052      -10.790499
0.1664            -0.00476614621     -10.9623593      -75.1089127      80.3971067      -75.1089127      80.3971067   -0.00475222549     -10.9618791
0.169             -0.00482921574     -11.1337424      -74.9664534       80.239022      -74.9664534       80.239022   -0.00481682141     -11.1332709
0.1716            -0.00489032329     -11.3051179       -74.825925      80.0802111       -74.825925      80.0802111   -0.00487950719     -11.3046495
0.1742            -0.00495407122     -11.4765161      -74.6872767      79.9204353      -74.6872767      79.9204353   -0.00494179032     -11.4760288
0.1768            -0.00501794304      -11.647919      -74.5504377      79.7598246      -74.5504377      79.7598247   -0.00500378921     -11.6474113
0.1794            -0.00508158053      -11.819323      -74.4153426      79.5983423      -74.4153426      79.5983423    -0.0050675778     -11.8188135
0.182              -0.0051449878     -11.9907304      -74.2819435      79.4359986      -74.2819435      79.4359986   -0.00513235594     -11.9902272
0.1846            -0.00520667915     -12.1621313       -74.150203      79.2728697       -74.150203      79.2728697   -0.00519546591     -12.1616295
0.1872            -0.00527076263     -12.3335531       -74.020061      79.1087909       -74.020061      79.1087909   -0.00525824236     -12.3330332
0.1898            -0.00533498858     -12.5049796      -73.8914773      78.9438404      -73.8914773      78.9438405   -0.00532079954     -12.5044404
0.1924            -0.00539903657     -12.6764079      -73.7644023      78.7779833      -73.7644023      78.7779833   -0.00538500201     -12.6758665
0.195              -0.0054629108     -12.8478398      -73.6387973      78.6112297      -73.6387973      78.6112297   -0.00545012636     -12.8473039
0.1976            -0.00552527955     -13.0192668      -73.5146324      78.4436457      -73.5146324      78.4436457   -0.00551378758     -13.0187313
0.2002            -0.00558983885     -13.1907131      -73.3918584      78.2751226      -73.3918584      78.2751226   -0.00557717654     -13.1901607
0.2028            -0.00565456026     -13.3621646      -73.2704432      78.1057022      -73.2704432      78.1057022    -0.0056404038     -13.3615943
0.2054            -0.00571915468     -13.5336183      -73.1503467       77.935352      -73.1503467       77.935352   -0.00570515775     -13.5330458
0.208             -0.00578362636     -13.7050762      -73.0315376      77.7640817      -73.0315376      77.7640817   -0.00577078026     -13.7045085
0.2106            -0.00584677459     -13.8765303      -72.9139916      77.5919495      -72.9139916      77.5919495   -0.00583511599     -13.8759626
0.2132             -0.0059119446     -14.0480027      -72.7976688      77.4188713      -72.7976688      77.4188713   -0.00589923472     -14.0474193
0.2158            -0.00597729676     -14.2194805      -72.6825423      77.2448769      -72.6825423      77.2448769   -0.00596324375     -14.2188805
0.2184             -0.0060425687     -14.3909613      -72.5685796      77.0699384      -72.5685796      77.0699384   -0.00602868146     -14.3903591
0.221             -0.00610776474     -14.5624467      -72.4557548      76.8940655      -72.4557548      76.8940655   -0.00609494586     -14.5618488
0.2236            -0.00617179574     -14.7339293       -72.344048      76.7173096       -72.344048      76.7173096   -0.00616007723     -14.7333311
0.2262            -0.00623770661     -14.9054292      -72.2334265       76.539602      -72.2334265       76.539602   -0.00622504227     -14.9048164
0.2288            -0.00630382014      -15.076935      -72.1238676      76.3609667      -72.1238676      76.3609667   -0.00628994531     -15.0763067
0.2314            -0.00636989698     -15.2484444      -72.0153446      76.1813806      -72.0153446      76.1813806   -0.00635619577     -15.2478139
0.234             -0.00643594152     -15.4199587      -71.9078358       76.000853      -71.9078358       76.000853   -0.00642324032     -15.4193322
0.2366            -0.00650096052     -15.5914711       -71.801325      75.8194299       -71.801325      75.8194299   -0.00648928758     -15.5908441
0.2392            -0.00656773963     -15.7630001      -71.6957847       75.637054      -71.6957847       75.637054   -0.00655521558     -15.7623596
0.2418            -0.00663474245     -15.9345354      -71.5911961      75.4537457      -71.5911961      75.4537457   -0.00662112601     -15.9338803
0.2444            -0.00670174958     -16.1060747      -71.4875366      75.2694859      -71.4875366      75.2694859   -0.00668831639     -16.1054177
0.247              -0.0067687655     -16.2776195      -71.3847881      75.0842836      -71.3847881      75.0842836   -0.00675627595     -16.2769662
0.2496            -0.00683488016      -16.449163      -71.2829372      74.8981806      -71.2829372      74.8981806   -0.00682335937     -16.4485091
0.2522            -0.00690265355     -16.6207227      -71.1819609      74.7111284      -71.1819609      74.7111284   -0.00689036785     -16.6200561
0.2548            -0.00697067225     -16.7922889      -71.0818429      74.5231446      -71.0818429      74.5231446   -0.00695740067     -16.7916087
0.2574            -0.00703873433     -16.9638597      -70.9825643       74.334214      -70.9825643       74.334214   -0.00702565747     -16.9631777
0.26              -0.00710684436     -17.1354363      -70.8841099      74.1443453      -70.8841099      74.1443453   -0.00709466501     -17.1347579
0.2626            -0.00717416501     -17.3070124      -70.7864685      73.9535764      -70.7864685      73.9535764   -0.00716290566     -17.3063334
0.2652             -0.0072430584     -17.4786041      -70.6896204      73.7618663      -70.6896204      73.7618663   -0.00723111354     -17.4779132
0.2678            -0.00731221932     -17.6502027      -70.5935518      73.5692306      -70.5935518      73.5692306   -0.00729938574     -17.6494992
0.2704            -0.00738146121     -17.8218064      -70.4982467       73.375657      -70.4982467       73.375657   -0.00736883571     -17.8211012
0.273             -0.00745078874     -17.9934162      -70.4036921       73.181154      -70.4036921       73.181154   -0.00743902343     -17.9927146
0.2756            -0.00751942855     -18.1650261      -70.3098785      72.9857564      -70.3098785      72.9857564   -0.00750854374      -18.164324
0.2782            -0.00758956817     -18.3366514      -70.2167892      72.7894296      -70.2167892      72.7894296   -0.00757807181     -18.3359381
0.2808            -0.00765999817     -18.5082837      -70.1244123      72.5921871      -70.1244123      72.5921871   -0.00764770271     -18.5075587
0.2834            -0.00773054561     -18.6799217      -70.0327339      72.3940196      -70.0327339      72.3940196   -0.00771847347     -18.6791952
0.286             -0.00780121527     -18.8515661       -69.941743      72.1949352       -69.941743      72.1949352   -0.00778997372     -18.8508432
0.2886            -0.00787129044     -19.0232113      -69.8514317       71.994966      -69.8514317       71.994966   -0.00786089798     -19.0224879
0.2912            -0.00794280363     -19.1948713      -69.7617856      71.7940829      -69.7617856      71.7940829   -0.00793186924     -19.1941376
0.2938             -0.0080146307     -19.3665389      -69.6727942      71.5922976      -69.6727942      71.5922976   -0.00800298073     -19.3657941
0.2964            -0.00808661085     -19.5382125      -69.5844457      71.3896033      -69.5844457      71.3896033   -0.00807520135     -19.5374665
0.299             -0.00815874899     -19.7098929      -69.4967304      71.1860079      -69.4967304      71.1860079   -0.00814814732     -19.7091506
0.3016            -0.00823037886     -19.8815745      -69.4096419      70.9815411      -69.4096419      70.9815411   -0.00822060197     -19.8808318
0.3042            -0.00830339454     -20.0532708      -69.3231675      70.7761785      -69.3231675      70.7761785   -0.00829314192     -20.0525185
0.3068            -0.00837674828     -20.2249748       -69.237298      70.5699303       -69.237298      70.5699303   -0.00836585868     -20.2242123
0.3094            -0.00845029017     -20.3966853      -69.1520234      70.3627919      -69.1520234      70.3627919    -0.0084396601     -20.3959219
0.312             -0.00852402524      -20.568403      -69.0673352       70.154771      -69.0673352       70.154771   -0.00851418635     -20.5676434
0.3146            -0.00859733237     -20.7401223      -68.9832278       69.945895      -68.9832278       69.945895    -0.0085883003     -20.7393625
0.3172            -0.00867198144     -20.9118561      -68.8996904      69.7361439      -68.8996904      69.7361439   -0.00866253715     -20.9110874
0.3198            -0.00874699344      -21.083598      -68.8167148      69.5255264      -68.8167148      69.5255264   -0.00873698683     -21.0828197
0.3224            -0.00882222826     -21.2553468      -68.7342922      69.3140397      -68.7342922      69.3140397   -0.00881250218     -21.2545678
0.325             -0.00889769107     -21.4271029      -68.6524152      69.1016915      -68.6524152      69.1016915   -0.00888874505      -21.426328
0.3276            -0.00897280133     -21.5988612      -68.5710792      68.8885071      -68.5710792      68.8885071   -0.00896464992     -21.5980863
0.3302            -0.00904921696     -21.7706338      -68.4902746      68.6744704      -68.4902746      68.6744704   -0.00904071479     -21.7698507
0.3328            -0.00912602108     -21.9424148      -68.4099942      68.4595887      -68.4099942      68.4595887   -0.00911702813     -21.9416228
0.3354            -0.00920308247      -22.114203      -68.3302302       68.243861      -68.3302302       68.243861     -0.009194393     -22.1134107
0.338             -0.00928040644     -22.2859989      -68.2509763      68.0272945      -68.2509763      68.0272945   -0.00927249095     -22.2852108
0.3406            -0.00935744908     -22.4577974      -68.1722283      67.8099131      -68.1722283      67.8099131    -0.0093503212     -22.4570095
0.3432            -0.00943576694       -22.62961      -68.0939781       67.591704      -68.0939781       67.591704   -0.00942834824     -22.6288146
0.3458            -0.00951449956     -22.8014313      -68.0162189      67.3726731      -68.0162189      67.3726731   -0.00950665918     -22.8006276
0.3484             -0.0095935238     -22.9732602      -67.9389442       67.152821      -67.9389442       67.152821    -0.0095860118     -22.9724565
0.351             -0.00967284513     -23.1450971      -67.8621482      66.9321547      -67.8621482      66.9321547   -0.00966610568     -23.1442979
0.3536            -0.00975195284     -23.3169369      -67.7858275      66.7106966      -67.7858275      66.7106966    -0.0097459988     -23.3161382
0.3562            -0.00983231134     -23.4887909      -67.7099747      66.4884368      -67.7099747      66.4884368    -0.0098261253     -23.4879851
0.3588            -0.00991311157     -23.6606538       -67.634584      66.2653801       -67.634584      66.2653801   -0.00990657103     -23.6598403
0.3614            -0.00999423781     -23.8325247      -67.5596494      66.0415285      -67.5596494      66.0415285   -0.00998805248     -23.8317114
0.364              -0.0100756955     -24.0044036       -67.485166      65.8168889       -67.485166      65.8168889    -0.0100702857     -24.0035951
0.3666             -0.0101570042     -24.1762855      -67.4111308      65.5914822      -67.4111308      65.5914822    -0.0101523823     -24.1754781
0.3692             -0.0102395442     -24.3481813      -67.3375372      65.3653014      -67.3375372      65.3653014    -0.0102347487      -24.347368
0.3718             -0.0103225538     -24.5200864        -67.26438      65.1383497        -67.26438      65.1383497    -0.0103174698     -24.5192664
0.3744             -0.0104059239     -24.6920001      -67.1916538      64.9106306      -67.1916538      64.9106306    -0.0104012241     -24.6911809
0.377              -0.0104896602     -24.8639225      -67.1193541      64.6821505      -67.1193541      64.6821505    -0.0104857429     -24.8631082
0.3796             -0.0105733098     -25.0358483      -67.0474787      64.4529292      -67.0474787      64.4529292    -0.0105701866     -25.0350352
0.3822             -0.0106581759     -25.2077881      -66.9760215      64.2229624      -66.9760215      64.2229624    -0.0106549368     -25.2069691
0.3848             -0.0107435398     -25.3797372      -66.9049779      63.9922521      -66.9049779      63.9922521     -0.010740077     -25.3789117
0.3874             -0.0108292988     -25.5516949       -66.834343      63.7608034       -66.834343      63.7608034    -0.0108262511     -25.5508704
0.39               -0.0109154587     -25.7236614      -66.7641129      63.5286219      -66.7641129      63.5286219    -0.0109132044     -25.7228421
0.3926             -0.0110015919     -25.8956316      -66.6942856      63.2957262      -66.6942856      63.2957262    -0.0110001423      -25.894814
0.3952             -0.0110889309     -26.0676158      -66.6248557      63.0621145      -66.6248557      63.0621145    -0.0110874234     -26.0667932
0.3978             -0.0111767969     -26.2396097       -66.555819      62.8277876       -66.555819      62.8277876    -0.0111751301     -26.2387813
0.4004             -0.0112650928     -26.4116125       -66.487171      62.5927516       -66.487171      62.5927516    -0.0112638743     -26.4107857
0.403              -0.0113538247     -26.5836243      -66.4189085      62.3570121      -66.4189085      62.3570121    -0.0113534141     -26.5828033
0.4056             -0.0114425881       -26.75564      -66.3510295      62.1205867      -66.3510295      62.1205867    -0.0114429964      -26.754821
0.4082             -0.0115325501     -26.9276698      -66.2835293      61.8834756      -66.2835293      61.8834756    -0.0115329586     -26.9268462
0.4108             -0.0116230689     -27.0997094       -66.216404      61.6456784       -66.216404      61.6456784    -0.0116233824     -27.0988806
0.4134             -0.0117140529     -27.2717582      -66.1496497      61.4072024      -66.1496497      61.4072024    -0.0117148498     -27.2709313
0.416              -0.0118055081     -27.4438163      -66.0832632      61.1680528      -66.0832632      61.1680528    -0.0118071311     -27.4429955
0.4186             -0.0118970515     -27.6158785      -66.0172431      60.9282461      -66.0172431      60.9282461    -0.0118995112     -27.6150601
0.4212             -0.0119897897     -27.7879548      -65.9515851      60.6877848      -65.9515851      60.6877848    -0.0119923084     -27.7871324
0.4238             -0.0120831152     -27.9600411      -65.8862855      60.4466672      -65.8862855      60.4466672    -0.0120856032     -27.9592141
0.4264             -0.0121769414     -28.1321369      -65.8213409      60.2049017      -65.8213409      60.2049017    -0.0121799503     -28.1313123
0.429              -0.0122712745     -28.3042422      -65.7567483      59.9624932      -65.7567483      59.9624932     -0.012275131     -28.3034241
0.4316             -0.0123657509     -28.4763518      -65.6925067      59.7194573      -65.6925067      59.7194573    -0.0123704656     -28.4755365
0.4342             -0.0124614215     -28.6484755      -65.6286121      59.4757983      -65.6286121      59.4757983    -0.0124662547     -28.6476567
0.4368             -0.0125577105     -28.8206094       -65.565061      59.2315134       -65.565061      59.2315134     -0.012562578     -28.8197865
0.4394             -0.0126545361     -28.9927532      -65.5018503      58.9866121      -65.5018503      58.9866121    -0.0126599642      -28.991933
0.442              -0.0127519045     -29.1649065      -65.4389775      58.7410989      -65.4389775      58.7410989    -0.0127582053     -29.1640933
0.4446             -0.0128494704     -29.3370644      -65.3764416      58.4949885      -65.3764416      58.4949885    -0.0128566544     -29.3362544
0.4472             -0.0129482324     -29.5092363       -65.314239       58.248287       -65.314239       58.248287    -0.0129555957     -29.5084234
0.4498             -0.0130476447     -29.6814188      -65.2523666      58.0009906      -65.2523666      58.0009906    -0.0130551079     -29.6806023
0.4524             -0.0131476298     -29.8536112      -65.1908214      57.7531097      -65.1908214      57.7531097     -0.013155696     -29.8527979
0.455              -0.0132481941     -30.0258135      -65.1296011      57.5046485      -65.1296011      57.5046485    -0.0132571615     -30.0250075
0.4576             -0.0133490089     -30.1980204      -65.0687051       57.255621      -65.0687051       57.255621    -0.0133588883      -30.197218
0.4602             -0.0134510242     -30.3702414      -65.0081299      57.0060345      -65.0081299      57.0060345    -0.0134611452     -30.3694367
0.4628             -0.0135537224     -30.5424732      -64.9478726      56.7558846      -64.9478726      56.7558846    -0.0135640103     -30.5416654
0.4654             -0.0136570299     -30.7147151      -64.8879307      56.5051825      -64.8879307      56.5051825    -0.0136679659     -30.7139109
0.468              -0.0137609534     -30.8869671      -64.8283019      56.2539322      -64.8283019      56.2539323    -0.0137728228     -30.8861706
0.4706             -0.0138651798     -31.0592238      -64.7689858      56.0021469      -64.7689858      56.0021469    -0.0138779935     -31.0584314
0.4732             -0.0139706133     -31.2314947       -64.709979      55.7498351       -64.709979      55.7498351    -0.0139837327     -31.2307004
0.4758             -0.0140767629     -31.4037764      -64.6512791      55.4969917      -64.6512791      55.4969917    -0.0140901176     -31.4029797
0.4784             -0.0141835587     -31.5760686      -64.5928836      55.2436289      -64.5928836      55.2436289    -0.0141976095     -31.5752758
0.481              -0.0142910077      -31.748371      -64.5347905      54.9897503      -64.5347905      54.9897503    -0.0143060279     -31.7475863
0.4836             -0.0143988115     -31.9206782      -64.4769994      54.7353684      -64.4769994      54.7353684    -0.0144148118     -31.9198981
0.4862             -0.0145078315     -32.0929996      -64.4195073      54.4804931      -64.4195073      54.4804931    -0.0145242029     -32.0922182
0.4888             -0.0146176013      -32.265332      -64.3623118      54.2251184      -64.3623118      54.2251184    -0.0146342778     -32.2645486
0.4914             -0.0147280549     -32.4376751      -64.3054106      53.9692575      -64.3054106      53.9692575    -0.0147454776     -32.4368961
0.494              -0.0148391992     -32.6100286       -64.248802      53.7129135       -64.248802      53.7129135    -0.0148576303     -32.6092581
0.4966             -0.0149507499     -32.7823868      -64.1924857      53.4560983      -64.1924857      53.4560983    -0.0149701998     -32.7816215
0.4992             -0.0150635288     -32.9547594      -64.1364587       53.198824      -64.1364587       53.198824    -0.0150834155     -32.9539933
0.5018             -0.0151770921     -33.1271431      -64.0807189      52.9410829      -64.0807189      52.9410829    -0.0151973535     -33.1263755
0.5044              -0.015291377     -33.2995376      -64.0252642      52.6828891      -64.0252642      52.6828891    -0.0153124359      -33.298775
0.507              -0.0154063906     -33.4719427      -63.9700931      52.4242453      -63.9700931      52.4242453    -0.0154284985     -33.4711891
0.5096              -0.015521862     -33.6443526      -63.9152054      52.1651628      -63.9152054      52.1651628    -0.0155450289     -33.6436047
0.5122             -0.0156385764     -33.8167768      -63.8605981      51.9056566      -63.8605981      51.9056566    -0.0156622448     -33.8160287